       N       E                     dE             d eps       ncg     rms          rms(c)
DAV:   1     0.328441029545E+04    0.32844E+04   -0.19886E+05  3108   0.116E+03
DAV:   2     0.863792913458E+02   -0.31980E+04   -0.29467E+04  3680   0.263E+02
DAV:   3    -0.161817121882E+03   -0.24820E+03   -0.22255E+03  3680   0.661E+01
DAV:   4    -0.175128944959E+03   -0.13312E+02   -0.12489E+02  4160   0.138E+01
DAV:   5    -0.175494943487E+03   -0.36600E+00   -0.36324E+00  3960   0.238E+00    0.631E+01
DAV:   6    -0.191909204243E+03   -0.16414E+02   -0.67548E+01  3544   0.286E+01    0.742E+01
DAV:   7    -0.217674451680E+03   -0.25765E+02   -0.14599E+02  4440   0.414E+01    0.631E+01
DAV:   8    -0.274368431730E+03   -0.56694E+02   -0.11900E+02  4666   0.665E+01    0.806E+01
DAV:   9    -0.219204688354E+03    0.55164E+02   -0.10596E+02  4056   0.358E+01    0.636E+01
DAV:  10    -0.176790496944E+03    0.42414E+02   -0.69293E+01  3532   0.267E+01    0.395E+01
DAV:  11    -0.160793877212E+03    0.15997E+02   -0.42012E+01  3456   0.226E+01    0.271E+01
DAV:  12    -0.158310060101E+03    0.24838E+01   -0.21671E+01  3464   0.161E+01    0.225E+01
DAV:  13    -0.155175093725E+03    0.31350E+01   -0.53056E+00  3360   0.746E+00    0.120E+01
DAV:  14    -0.154419762826E+03    0.75533E+00   -0.17422E+00  3440   0.464E+00    0.746E+00
DAV:  15    -0.154494302078E+03   -0.74539E-01   -0.85320E-01  3480   0.283E+00    0.722E+00
DAV:  16    -0.154528200540E+03   -0.33898E-01   -0.30694E-01  3394   0.202E+00    0.650E+00
DAV:  17    -0.154233935919E+03    0.29426E+00   -0.52174E-01  3504   0.275E+00    0.355E+00
DAV:  18    -0.154156775274E+03    0.77161E-01   -0.30776E-01  3384   0.173E+00    0.243E+00
DAV:  19    -0.154136549905E+03    0.20225E-01   -0.90169E-02  3310   0.938E-01    0.199E+00
DAV:  20    -0.154127476295E+03    0.90736E-02   -0.21908E-02  3308   0.473E-01    0.152E+00
DAV:  21    -0.154124274373E+03    0.32019E-02   -0.23405E-02  3384   0.528E-01    0.939E-01
DAV:  22    -0.154121283203E+03    0.29912E-02   -0.23603E-02  3392   0.521E-01    0.101E+00
DAV:  23    -0.154117725700E+03    0.35575E-02   -0.55184E-03  3312   0.246E-01    0.860E-01
DAV:  24    -0.154114343814E+03    0.33819E-02   -0.34969E-03  3468   0.213E-01    0.587E-01
DAV:  25    -0.154112547345E+03    0.17965E-02   -0.15049E-03  3328   0.133E-01    0.429E-01
DAV:  26    -0.154111262068E+03    0.12853E-02   -0.69856E-04  2876   0.907E-02    0.311E-01
DAV:  27    -0.154110646099E+03    0.61597E-03   -0.50063E-04  2216   0.764E-02    0.254E-01
DAV:  28    -0.154110330376E+03    0.31572E-03   -0.48604E-04  2612   0.665E-02    0.263E-01
DAV:  29    -0.154109971446E+03    0.35893E-03   -0.38702E-04  2396   0.596E-02    0.146E-01
DAV:  30    -0.154109920964E+03    0.50482E-04   -0.18074E-04  1880   0.389E-02
   1 F= -.15410992E+03 E0= -.15411057E+03  d E =0.194569E-02
