 vasp.5.4.4.18Apr17-6-g9f103f2a35 (build Jun 04 2020 09:47:53) complex          
  
 executed on             LinuxIFC date 2023.04.25  15:52:48
 running on    4 total cores
 distrk:  each k-point on    4 cores,    1 groups
 distr:  one band on NCORES_PER_BAND=   4 cores,    1 groups


--------------------------------------------------------------------------------------------------------


 INCAR:
 POTCAR:    PAW_PBE Pt 04Feb2005                  
 POTCAR:    PAW_PBE H 15Jun2001                   
 POTCAR:    PAW_PBE C 08Apr2002                   

 ----------------------------------------------------------------------------- 
|                                                                             |
|  ADVICE TO THIS USER RUNNING 'VASP/VAMP'   (HEAR YOUR MASTER'S VOICE ...):  |
|                                                                             |
|      You have switched on vdW-DFT.                                          |
|      This routine was written and supplied by Jiri Klimes.                  |
|      We recommed that you carefully read and cite the following             |
|      publication                                                            |
|      J. Klimes, D.R. Bowler, A. Michelides                                  |
|        J. Phys.: Cond Matt. 22 022201 (2010)                                |
|      J. Klimes, D.R. Bowler, A. Michelides                                  |
|        Phys. Rev. B. 83, 195131 (2011)                                      |
|      and references therein.                                                |
|                                                                             |
 ----------------------------------------------------------------------------- 

 POTCAR:    PAW_PBE Pt 04Feb2005                  
   VRHFIN =Pt: s1d9                                                             
   LEXCH  = PE                                                                  
   EATOM  =   729.1176 eV,   53.5886 Ry                                         
                                                                                
   TITEL  = PAW_PBE Pt 04Feb2005                                                
   LULTRA =        F    use ultrasoft PP ?                                      
   IUNSCR =        1    unscreen: 0-lin 1-nonlin 2-no                           
   RPACOR =    2.330    partial core radius                                     
   POMASS =  195.080; ZVAL   =   10.000    mass and valenz                      
   RCORE  =    2.600    outmost cutoff radius                                   
   RWIGS  =    2.750; RWIGS  =    1.455    wigner-seitz radius (au A)           
   ENMAX  =  230.283; ENMIN  =  172.712 eV                                      
   ICORE  =        3    local potential                                         
   LCOR   =        T    correct aug charges                                     
   LPAW   =        T    paw PP                                                  
   EAUG   =  358.966                                                            
   DEXC   =    0.000                                                            
   RMAX   =    2.658    core radius for proj-oper                               
   RAUG   =    1.300    factor for augmentation sphere                          
   RDEP   =    2.761    radius for radial grids                                 
   RDEPT  =    2.203    core radius for aug-charge                              
                                                                                
   Atomic configuration                                                         
   16 entries                                                                   
     n  l   j            E        occ.                                          
     1  0  0.50    -78401.1885   2.0000                                         
     2  0  0.50    -13770.7750   2.0000                                         
     2  1  1.50    -11931.0468   6.0000                                         
     3  0  0.50     -3234.7234   2.0000                                         
     3  1  1.50     -2699.2216   6.0000                                         
     3  2  2.50     -2119.5714  10.0000                                         
     4  0  0.50      -695.1528   2.0000                                         
     4  1  1.50      -519.6034   6.0000                                         
     4  2  2.50      -306.6786  10.0000                                         
     4  3  3.50       -70.1041  14.0000                                         
     5  0  0.50      -101.7747   2.0000                                         
     5  1  1.50       -55.9873   6.0000                                         
     5  2  2.50        -6.1423   9.0000                                         
     6  0  0.50        -5.6573   1.0000                                         
     6  1  1.50        -6.8029   0.0000                                         
     5  3  2.50        -1.3606   0.0000                                         
   Description                                                                  
     l       E           TYP  RCUT    TYP  RCUT                                 
     2     -6.1423404     23  2.500                                             
     2     -7.5029230     23  2.500                                             
     0     -5.6573207     23  2.500                                             
     0      0.7416693     23  2.500                                             
     1     -2.7211652     23  2.600                                             
     1     20.4087390     23  2.600                                             
     3     -1.3605826     23  2.500                                             
  local pseudopotential read in
  partial core-charges read in
  partial kinetic energy density read in
  atomic valenz-charges read in
  non local Contribution for L=           2  read in
    real space projection operators read in
  non local Contribution for L=           2  read in
    real space projection operators read in
  non local Contribution for L=           0  read in
    real space projection operators read in
  non local Contribution for L=           0  read in
    real space projection operators read in
  non local Contribution for L=           1  read in
    real space projection operators read in
  non local Contribution for L=           1  read in
    real space projection operators read in
    PAW grid and wavefunctions read in
 
   number of l-projection  operators is LMAX  =           6
   number of lm-projection operators is LMMAX =          18
 
 POTCAR:    PAW_PBE H 15Jun2001                   
   VRHFIN =H: ultrasoft test                                                    
   LEXCH  = PE                                                                  
   EATOM  =    12.4884 eV,    0.9179 Ry                                         
                                                                                
   TITEL  = PAW_PBE H 15Jun2001                                                 
   LULTRA =        F    use ultrasoft PP ?                                      
   IUNSCR =        0    unscreen: 0-lin 1-nonlin 2-no                           
   RPACOR =    0.000    partial core radius                                     
   POMASS =    1.000; ZVAL   =    1.000    mass and valenz                      
   RCORE  =    1.100    outmost cutoff radius                                   
   RWIGS  =    0.700; RWIGS  =    0.370    wigner-seitz radius (au A)           
   ENMAX  =  250.000; ENMIN  =  200.000 eV                                      
   RCLOC  =    0.701    cutoff for local pot                                    
   LCOR   =        T    correct aug charges                                     
   LPAW   =        T    paw PP                                                  
   EAUG   =  400.000                                                            
   RMAX   =    1.123    core radius for proj-oper                               
   RAUG   =    1.200    factor for augmentation sphere                          
   RDEP   =    1.112    radius for radial grids                                 
   RDEPT  =    0.926    core radius for aug-charge                              
                                                                                
   Atomic configuration                                                         
    2 entries                                                                   
     n  l   j            E        occ.                                          
     1  0  0.50        -6.4927   1.0000                                         
     2  1  0.50        -3.4015   0.0000                                         
   Description                                                                  
     l       E           TYP  RCUT    TYP  RCUT                                 
     0     -6.4927494     23  1.100                                             
     0      6.8029130     23  1.100                                             
     1     -4.0817478     23  1.100                                             
  local pseudopotential read in
  atomic valenz-charges read in
  non local Contribution for L=           0  read in
    real space projection operators read in
  non local Contribution for L=           0  read in
    real space projection operators read in
  non local Contribution for L=           1  read in
    real space projection operators read in
    PAW grid and wavefunctions read in
 
   number of l-projection  operators is LMAX  =           3
   number of lm-projection operators is LMMAX =           5
 
 POTCAR:    PAW_PBE C 08Apr2002                   
   VRHFIN =C: s2p2                                                              
   LEXCH  = PE                                                                  
   EATOM  =   147.1560 eV,   10.8157 Ry                                         
                                                                                
   TITEL  = PAW_PBE C 08Apr2002                                                 
   LULTRA =        F    use ultrasoft PP ?                                      
   IUNSCR =        1    unscreen: 0-lin 1-nonlin 2-no                           
   RPACOR =    1.200    partial core radius                                     
   POMASS =   12.011; ZVAL   =    4.000    mass and valenz                      
   RCORE  =    1.500    outmost cutoff radius                                   
   RWIGS  =    1.630; RWIGS  =    0.863    wigner-seitz radius (au A)           
   ENMAX  =  400.000; ENMIN  =  300.000 eV                                      
   ICORE  =        2    local potential                                         
   LCOR   =        T    correct aug charges                                     
   LPAW   =        T    paw PP                                                  
   EAUG   =  644.873                                                            
   DEXC   =    0.000                                                            
   RMAX   =    1.529    core radius for proj-oper                               
   RAUG   =    1.300    factor for augmentation sphere                          
   RDEP   =    1.501    radius for radial grids                                 
   RDEPT  =    1.300    core radius for aug-charge                              
                                                                                
   Atomic configuration                                                         
    4 entries                                                                   
     n  l   j            E        occ.                                          
     1  0  0.50      -273.3789   2.0000                                         
     2  0  0.50       -13.7508   2.0000                                         
     2  1  0.50        -5.2854   2.0000                                         
     3  2  1.50        -5.4423   0.0000                                         
   Description                                                                  
     l       E           TYP  RCUT    TYP  RCUT                                 
     0    -13.7508458     23  1.200                                             
     0     -8.2022199     23  1.200                                             
     1     -5.2854383     23  1.500                                             
     1     34.0145650     23  1.500                                             
     2     -5.4423304      7  1.500                                             
  local pseudopotential read in
  partial core-charges read in
  partial kinetic energy density read in
  atomic valenz-charges read in
  non local Contribution for L=           0  read in
    real space projection operators read in
  non local Contribution for L=           0  read in
    real space projection operators read in
  non local Contribution for L=           1  read in
    real space projection operators read in
  non local Contribution for L=           1  read in
    real space projection operators read in
    PAW grid and wavefunctions read in
 
   number of l-projection  operators is LMAX  =           4
   number of lm-projection operators is LMMAX =           8
 
 Optimization of the real space projectors (new method)

 maximal supplied QI-value         = 14.36
 optimisation between [QCUT,QGAM] = [ 10.20, 20.39] = [ 29.12,116.47] Ry 
 Optimized for a Real-space Cutoff    1.51 Angstroem

   l    n(q)    QCUT    max X(q) W(low)/X(q) W(high)/X(q)  e(spline) 
   2      8    10.197    66.195    0.45E-03    0.45E-03    0.14E-06
   2      8    10.197    64.643    0.46E-03    0.46E-03    0.14E-06
   0      9    10.197    95.520    0.15E-03    0.11E-03    0.54E-07
   0      9    10.197    63.403    0.15E-03    0.11E-03    0.52E-07
   1      9    10.197    19.961    0.13E-03    0.17E-03    0.77E-07
   1      9    10.197    13.289    0.10E-03    0.15E-03    0.67E-07
 Optimization of the real space projectors (new method)

 maximal supplied QI-value         = 34.20
 optimisation between [QCUT,QGAM] = [  9.92, 20.18] = [ 27.55,114.04] Ry 
 Optimized for a Real-space Cutoff    1.26 Angstroem

   l    n(q)    QCUT    max X(q) W(low)/X(q) W(high)/X(q)  e(spline) 
   0      8     9.919    19.460    0.50E-03    0.23E-03    0.29E-06
   0      8     9.919    12.209    0.48E-03    0.23E-03    0.28E-06
   1      7     9.919     4.655    0.17E-03    0.75E-03    0.30E-06
 Optimization of the real space projectors (new method)

 maximal supplied QI-value         = 25.13
 optimisation between [QCUT,QGAM] = [ 10.05, 20.36] = [ 28.30,116.06] Ry 
 Optimized for a Real-space Cutoff    1.30 Angstroem

   l    n(q)    QCUT    max X(q) W(low)/X(q) W(high)/X(q)  e(spline) 
   0      8    10.053   115.676    0.49E-03    0.72E-03    0.18E-06
   0      8    10.053    87.132    0.49E-03    0.71E-03    0.18E-06
   1      7    10.053     4.429    0.32E-03    0.31E-03    0.18E-06
   1      7    10.053     2.733    0.23E-03    0.19E-03    0.20E-06

 ----------------------------------------------------------------------------- 
|                                                                             |
|  ADVICE TO THIS USER RUNNING 'VASP/VAMP'   (HEAR YOUR MASTER'S VOICE ...):  |
|                                                                             |
|      You enforced a specific xc-type in the INCAR file,                     |
|      a different type was found on the POTCAR file                          |
|          I HOPE YOU KNOW, WHAT YOU ARE  DOING                               |
|                                                                             |
 ----------------------------------------------------------------------------- 

  PAW_PBE Pt 04Feb2005                  :
 energy of atom  1       EATOM= -729.1176
 kinetic energy error for atom=    0.0056 (will be added to EATOM!!)
  PAW_PBE H 15Jun2001                   :
 energy of atom  2       EATOM=  -12.4884
 kinetic energy error for atom=    0.0098 (will be added to EATOM!!)
  PAW_PBE C 08Apr2002                   :
 energy of atom  3       EATOM= -147.1560
 kinetic energy error for atom=    0.0288 (will be added to EATOM!!)
 
 
 POSCAR: Pt H C : CH4/Pt(110)-2x1 (1x3 supercell)
  positions in cartesian coordinates
  No initial velocities read in
 exchange correlation table for  LEXCH =       47
   RHO(1)=    0.500       N(1)  =     2000
   RHO(2)=  100.500       N(2)  =     4000

 VTST: version 3.2, (02/03/18)

 CHAIN: initializing optimizer
 
 OPT: Using VASP Dynamics algorithm
 CHAIN: Read ICHAIN            0
 
 POSCAR: Pt H C : CH4/Pt(110)-2x1 (1x3 supercell)
  positions in cartesian coordinates
  No initial velocities read in
 


--------------------------------------------------------------------------------------------------------


 ion  position               nearest neighbor table
   1  0.000  0.000  0.000-  13 2.83  10 2.84   9 2.84   5 2.84  12 2.84  11 2.84   3 2.84
   2  0.500  0.000  0.000-   9 2.84  10 2.84   6 2.84  11 2.84  12 2.84   4 2.84  14 2.86
   3  0.000  0.333  0.000-  15 2.83   8 2.84   7 2.84  10 2.84   9 2.84   5 2.84   1 2.84
   4  0.500  0.333  0.000-   7 2.84   8 2.84   9 2.84  10 2.84   6 2.84   2 2.84  16 2.86
   5  0.000  0.667  0.000-  17 2.83  12 2.84  11 2.84   1 2.84   8 2.84   7 2.84   3 2.84
   6  0.500  0.667  0.000-  11 2.84  12 2.84   2 2.84   7 2.84   8 2.84   4 2.84  18 2.86
   7  0.250  0.500  0.045-  15 2.84  17 2.84   3 2.84   4 2.84   5 2.84   6 2.84  11 2.84   9 2.84
                            16 2.85  18 2.85  21 2.87
   8  0.750  0.500  0.045-  15 2.84  17 2.84   3 2.84   4 2.84   5 2.84   6 2.84  12 2.84  10 2.84
                            16 2.85  18 2.85  22 2.87
   9  0.250  0.167  0.045-  15 2.84  13 2.84   1 2.84   2 2.84  11 2.84   4 2.84   3 2.84   7 2.84
                            16 2.85  14 2.85  19 2.87
  10  0.750  0.167  0.045-  15 2.84  13 2.84   1 2.84   2 2.84  12 2.84   4 2.84   3 2.84   8 2.84
                            16 2.85  14 2.85  20 2.87
  11  0.250  0.833  0.045-  17 2.84  13 2.84   5 2.84   6 2.84   9 2.84   2 2.84   1 2.84   7 2.84
                            18 2.85  14 2.85  23 2.87
  12  0.750  0.833  0.045-  17 2.84  13 2.84   5 2.84   6 2.84  10 2.84   2 2.84   1 2.84   8 2.84
                            18 2.85  14 2.85  24 2.87
  13  1.000  1.000  0.090-   1 2.83  12 2.84  10 2.84  11 2.84   9 2.84  17 2.84  15 2.84  19 2.84
                            20 2.84  23 2.84  24 2.84  30 2.88
  14  0.500  1.000  0.091-  26 2.80  18 2.84  16 2.84  11 2.85   9 2.85  12 2.85  10 2.85   2 2.86
                            20 2.87  19 2.87  24 2.87  23 2.87
  15  1.000  0.333  0.090-   3 2.83  10 2.84   9 2.84   8 2.84   7 2.84  13 2.84  17 2.84  21 2.84
                            22 2.84  19 2.84  20 2.84  29 2.88
  16  0.500  0.333  0.091-  25 2.80  14 2.84  18 2.84   9 2.85  10 2.85   7 2.85   8 2.85   4 2.86
                            22 2.87  21 2.87  20 2.87  19 2.87
  17  1.000  0.667  0.090-   5 2.83  12 2.84  11 2.84   8 2.84   7 2.84  13 2.84  15 2.84  21 2.84
                            22 2.84  23 2.84  24 2.84  28 2.88
  18  0.500  0.667  0.091-  27 2.80  14 2.84  16 2.84  11 2.85  12 2.85   7 2.85   8 2.85   6 2.86
                            22 2.87  21 2.87  24 2.87  23 2.87
  19  0.247  0.167  0.137-  29 2.82  30 2.82  25 2.84  26 2.84  23 2.84  21 2.84  13 2.84  15 2.84
                            35 2.85  14 2.87  16 2.87   9 2.87
  20  0.753  0.167  0.137-  29 2.82  30 2.82  25 2.84  26 2.84  24 2.84  22 2.84  13 2.84  15 2.84
                            36 2.85  14 2.87  16 2.87  10 2.87
  21  0.247  0.500  0.137-  29 2.82  28 2.82  27 2.84  25 2.84  23 2.84  19 2.84  17 2.84  15 2.84
                            33 2.85  18 2.87  16 2.87   7 2.87
  22  0.753  0.500  0.137-  29 2.82  28 2.82  25 2.84  27 2.84  24 2.84  20 2.84  17 2.84  15 2.84
                            34 2.85  18 2.87  16 2.87   8 2.87
  23  0.247  0.833  0.137-  28 2.82  30 2.82  27 2.84  26 2.84  19 2.84  21 2.84  13 2.84  17 2.84
                            31 2.85  14 2.87  18 2.87  11 2.87
  24  0.753  0.833  0.137-  28 2.82  30 2.82  27 2.84  26 2.84  20 2.84  22 2.84  13 2.84  17 2.84
                            32 2.85  14 2.87  18 2.87  12 2.87
  25  0.500  0.333  0.180-  37 2.73  16 2.80  19 2.84  20 2.84  21 2.84  22 2.84  26 2.84  27 2.84
                            33 2.93  34 2.93  36 2.93  35 2.93
  26  0.500  1.000  0.180-  38 2.73  14 2.80  23 2.84  19 2.84  24 2.84  20 2.84  25 2.84  27 2.84
                            36 2.93  35 2.93  31 2.93  32 2.93
  27  0.500  0.667  0.180-  39 2.73  18 2.80  23 2.84  24 2.84  21 2.84  22 2.84  26 2.84  25 2.84
                            33 2.93  34 2.93  31 2.93  32 2.93
  28  1.000  0.667  0.182-  34 2.79  33 2.79  32 2.79  31 2.79  24 2.82  23 2.82  22 2.82  21 2.82
                            30 2.84  29 2.84  17 2.88  40 3.04
  29  1.000  0.333  0.182-  33 2.79  34 2.79  36 2.79  35 2.79  20 2.82  19 2.82  22 2.82  21 2.82
                            30 2.84  28 2.84  15 2.88  41 3.04
  30  1.000  1.000  0.182-  36 2.79  35 2.79  32 2.79  31 2.79  24 2.82  23 2.82  20 2.82  19 2.82
                            28 2.84  29 2.84  13 2.88  42 3.04
  31  0.240  0.833  0.228-  30 2.79  28 2.79  39 2.81  38 2.81  33 2.84  35 2.84  47 2.85  23 2.85
                            40 2.89  42 2.89  26 2.93  27 2.93
  32  0.760  0.833  0.228-  30 2.79  28 2.79  39 2.81  38 2.81  34 2.84  36 2.84  48 2.85  24 2.85
                            40 2.89  42 2.89  26 2.93  27 2.93
  33  0.240  0.500  0.228-  28 2.79  29 2.79  37 2.81  39 2.81  35 2.84  31 2.84  45 2.85  21 2.85
                            41 2.89  40 2.89  27 2.93  25 2.93
  34  0.760  0.500  0.228-  28 2.79  29 2.79  37 2.81  39 2.81  32 2.84  36 2.84  46 2.85  22 2.85
                            41 2.89  40 2.89  27 2.93  25 2.93
  35  0.240  0.167  0.228-  30 2.79  29 2.79  37 2.81  38 2.81  33 2.84  31 2.84  43 2.85  19 2.85
                            41 2.89  42 2.89  26 2.93  25 2.93
  36  0.760  0.167  0.228-  30 2.79  29 2.79  37 2.81  38 2.81  34 2.84  32 2.84  44 2.85  20 2.85
                            41 2.89  42 2.89  26 2.93  25 2.93
  37  0.500  0.333  0.267-  25 2.73  50 2.75  36 2.81  35 2.81  34 2.81  33 2.81  38 2.84  39 2.84
                            45 2.96  46 2.96  44 2.96  43 2.96
  38  0.500  1.000  0.267-  26 2.73  49 2.75  31 2.81  32 2.81  35 2.81  36 2.81  39 2.84  37 2.84
                            44 2.96  43 2.96  48 2.96  47 2.96
  39  0.500  0.667  0.267-  27 2.73  51 2.75  31 2.81  32 2.81  34 2.81  33 2.81  38 2.84  37 2.84
                            45 2.96  46 2.96  48 2.96  47 2.96
  40  1.000  0.667  0.279-  46 2.73  47 2.73  48 2.73  45 2.73  42 2.84  41 2.84  32 2.89  31 2.89
                            34 2.89  33 2.89  28 3.04
  41  1.000  0.333  0.279-  46 2.73  45 2.73  43 2.73  44 2.73  42 2.84  40 2.84  35 2.89  36 2.89
                            34 2.89  33 2.89  29 3.04
  42  1.000  1.000  0.279-  47 2.73  48 2.73  43 2.73  44 2.73  40 2.84  41 2.84  32 2.89  31 2.89
                            35 2.89  36 2.89  30 3.04
  43  0.246  0.167  0.319-  42 2.73  41 2.73  50 2.74  49 2.74  47 2.84  45 2.84  35 2.85  38 2.96
                            37 2.96
  44  0.754  0.167  0.319-  42 2.73  41 2.73  49 2.74  50 2.74  48 2.84  46 2.84  36 2.85  38 2.96
                            37 2.96
  45  0.246  0.500  0.319-  40 2.73  41 2.73  50 2.74  51 2.74  43 2.84  47 2.84  33 2.85  39 2.96
                            37 2.96
  46  0.754  0.500  0.319-  40 2.73  41 2.73  50 2.74  51 2.74  48 2.84  44 2.84  34 2.85  39 2.96
                            37 2.96
  47  0.246  0.833  0.319-  42 2.73  40 2.73  51 2.74  49 2.74  43 2.84  45 2.84  31 2.85  38 2.96
                            39 2.96
  48  0.754  0.833  0.319-  42 2.73  40 2.73  51 2.74  49 2.74  44 2.84  46 2.84  32 2.85  38 2.96
                            39 2.96
  49  0.500  1.000  0.355-  48 2.74  44 2.74  47 2.74  43 2.74  38 2.75  51 2.84  50 2.84
  50  0.500  0.333  0.355-  43 2.74  44 2.74  45 2.74  46 2.74  37 2.75  51 2.84  49 2.84
  51  0.500  0.667  0.355-  47 2.74  48 2.74  45 2.74  46 2.74  39 2.75  50 2.84  49 2.84
  52  0.918  0.883  0.425-  56 0.95
  53  0.074  0.005  0.401-  56 1.00
  54  0.035  0.023  0.447-  56 0.94
  55  0.096  0.874  0.439-  56 1.07
  56  0.010  0.953  0.424-  54 0.94  52 0.95  53 1.00  55 1.07
 
  LATTYP: Found a simple orthorhombic cell.
 ALAT       =     8.0400000000
 B/A-ratio  =     1.0606601718
 C/A-ratio  =     3.9017757514
  
  Lattice vectors:
  
 A1 = (   8.0400000000,   0.0000000000,   0.0000000000)
 A2 = (   0.0000000000,   8.5277077811,   0.0000000000)
 A3 = (   0.0000000000,   0.0000000000,  31.3702770415)


Analysis of symmetry for initial positions (statically):
=====================================================================
 Subroutine PRICEL returns:
 Original cell was already a primitive cell.
 

 Routine SETGRP: Setting up the symmetry group for a 
 simple orthorhombic supercell.


 Subroutine GETGRP returns: Found  1 space group operations
 (whereof  1 operations were pure point group operations)
 out of a pool of  8 trial point group operations.


The static configuration has the point symmetry C_1 .


Analysis of symmetry for dynamics (positions and initial velocities):
=====================================================================
 Subroutine PRICEL returns:
 Original cell was already a primitive cell.
 

 Routine SETGRP: Setting up the symmetry group for a 
 simple orthorhombic supercell.


 Subroutine GETGRP returns: Found  1 space group operations
 (whereof  1 operations were pure point group operations)
 out of a pool of  8 trial point group operations.


The dynamic configuration has the point symmetry C_1 .


Analysis of constrained symmetry for selective dynamics:
=====================================================================
 Subroutine PRICEL returns:
 Original cell was already a primitive cell.
 

 Routine SETGRP: Setting up the symmetry group for a 
 simple orthorhombic supercell.


 Subroutine GETGRP returns: Found  1 space group operations
 (whereof  1 operations were pure point group operations)
 out of a pool of  8 trial point group operations.


The constrained configuration has the point symmetry C_1 .


 Subroutine INISYM returns: Found  1 space group operations
 (whereof  1 operations are pure point group operations),
 and found     1 'primitive' translations

 
 
 KPOINTS: K-points                                

Automatic generation of k-mesh.
Space group operators:
 irot       det(A)        alpha          n_x          n_y          n_z        tau_x        tau_y        tau_z
    1     1.000000     0.000000     1.000000     0.000000     0.000000     0.000000     0.000000     0.000000
 
 Subroutine IBZKPT returns following result:
 ===========================================
 
 Found      5 irreducible k-points:
 
 Following reciprocal coordinates:
            Coordinates               Weight
  0.000000  0.000000  0.000000      1.000000
  0.333333  0.000000  0.000000      2.000000
  0.000000  0.333333  0.000000      2.000000
  0.333333  0.333333  0.000000      2.000000
 -0.333333  0.333333  0.000000      2.000000
 
 Following cartesian coordinates:
            Coordinates               Weight
  0.000000  0.000000  0.000000      1.000000
  0.041459  0.000000  0.000000      2.000000
  0.000000  0.039088  0.000000      2.000000
  0.041459  0.039088  0.000000      2.000000
 -0.041459  0.039088  0.000000      2.000000
 


--------------------------------------------------------------------------------------------------------




 Dimension of arrays:
   k-points           NKPTS =      5   k-points in BZ     NKDIM =      5   number of bands    NBANDS=    310
   number of dos      NEDOS =    301   number of ions     NIONS =     56
   non local maximal  LDIM  =      6   non local SUM 2l+1 LMDIM =     18
   total plane-waves  NPLWV = 268800
   max r-space proj   IRMAX =   1847   max aug-charges    IRDMAX=   7768
   dimension x,y,z NGX =    40 NGY =   42 NGZ =  160
   dimension x,y,z NGXF=    80 NGYF=   84 NGZF=  320
   support grid    NGXF=    80 NGYF=   84 NGZF=  320
   ions per type =              51   4   1
   NGX,Y,Z   is equivalent  to a cutoff of   8.27,  8.19,  8.48 a.u.
   NGXF,Y,Z  is equivalent  to a cutoff of  16.54, 16.38, 16.96 a.u.

 SYSTEM =  Pt110                                   
 POSCAR =  Pt H C : CH4/Pt(110)-2x1 (1x3 supercell)

 Startparameter for this run:
   NWRITE =      2    write-flag & timer
   PREC   = normal    normal or accurate (medium, high low for compatibility)
   ISTART =      0    job   : 0-new  1-cont  2-samecut
   ICHARG =      2    charge: 1-file 2-atom 10-const
   ISPIN  =      1    spin polarized calculation?
   LNONCOLLINEAR =      F non collinear calculations
   LSORBIT =      F    spin-orbit coupling
   INIWAV =      1    electr: 0-lowe 1-rand  2-diag
   LASPH  =      T    aspherical Exc in radial PAW
   METAGGA=      F    non-selfconsistent MetaGGA calc.

 Electronic Relaxation 1
   ENCUT  =  400.0 eV  29.40 Ry    5.42 a.u.  13.11 13.91 51.16*2*pi/ulx,y,z
   ENINI  =  400.0     initial cutoff
   ENAUG  =  644.9 eV  augmentation charge cutoff
   NELM   =     60;   NELMIN=  4; NELMDL= -5     # of ELM steps 
   EDIFF  = 0.1E-03   stopping-criterion for ELM
   LREAL  =      T    real-space projection
   NLSPLINE    = F    spline interpolate recip. space projectors
   LCOMPAT=      F    compatible to vasp.4.4
   GGA_COMPAT  = T    GGA compatible to vasp.4.4-vasp.4.6
   LMAXPAW     = -100 max onsite density
   LMAXMIX     =    2 max onsite mixed and CHGCAR
   VOSKOWN=      1    Vosko Wilk Nusair interpolation
   ROPT   =   -0.00050  -0.00050  -0.00050
 Ionic relaxation
   EDIFFG = 0.1E-02   stopping-criterion for IOM
   NSW    =      0    number of steps for IOM
   NBLOCK =      1;   KBLOCK =      1    inner block; outer block 
   IBRION =     -1    ionic relax: 0-MD 1-quasi-New 2-CG
   NFREE  =      0    steps in history (QN), initial steepest desc. (CG)
   ISIF   =      2    stress and relaxation
   IWAVPR =     10    prediction:  0-non 1-charg 2-wave 3-comb
   ISYM   =      2    0-nonsym 1-usesym 2-fastsym
   LCORR  =      T    Harris-Foulkes like correction to forces

   POTIM  = 0.5000    time-step for ionic-motion
   TEIN   =    0.0    initial temperature
   TEBEG  =    0.0;   TEEND  =   0.0 temperature during run
   SMASS  =  -3.00    Nose mass-parameter (am)
   estimated Nose-frequenzy (Omega)   =  0.10E-29 period in steps =****** mass=  -0.148E-26a.u.
   SCALEE = 1.0000    scale energy and forces
   NPACO  =    256;   APACO  = 16.0  distance and # of slots for P.C.
   PSTRESS=    0.0 pullay stress

  Mass of Ions in am
   POMASS = 195.08  1.00 12.01
  Ionic Valenz
   ZVAL   =  10.00  1.00  4.00
  Atomic Wigner-Seitz radii
   RWIGS  =  -1.00 -1.00 -1.00
  virtual crystal weights 
   VCA    =   1.00  1.00  1.00
   NELECT =     518.0000    total number of electrons
   NUPDOWN=      -1.0000    fix difference up-down

 DOS related values:
   EMIN   =  10.00;   EMAX   =-10.00  energy-range for DOS
   EFERMI =   0.00
   ISMEAR =     1;   SIGMA  =   0.10  broadening in eV -4-tet -1-fermi 0-gaus

 Electronic relaxation 2 (details)
   IALGO  =     38    algorithm
   LDIAG  =      T    sub-space diagonalisation (order eigenvalues)
   LSUBROT=      F    optimize rotation matrix (better conditioning)
   TURBO    =      0    0=normal 1=particle mesh
   IRESTART =      0    0=no restart 2=restart with 2 vectors
   NREBOOT  =      0    no. of reboots
   NMIN     =      0    reboot dimension
   EREF     =   0.00    reference energy to select bands
   IMIX   =      4    mixing-type and parameters
     AMIX     =   0.40;   BMIX     =  1.00
     AMIX_MAG =   1.60;   BMIX_MAG =  1.00
     AMIN     =   0.10
     WC   =   100.;   INIMIX=   1;  MIXPRE=   1;  MAXMIX= -45

 Intra band minimization:
   WEIMIN = 0.0000     energy-eigenvalue tresh-hold
   EBREAK =  0.81E-07  absolut break condition
   DEPER  =   0.30     relativ break condition  

   TIME   =   0.40     timestep for ELM

  volume/ion in A,a.u.               =      38.41       259.19
  Fermi-wavevector in a.u.,A,eV,Ry     =   1.018550  1.924781 14.115294  1.037445
  Thomas-Fermi vector in A             =   2.152014
 
 Write flags
   LWAVE        =      F    write WAVECAR
   LDOWNSAMPLE  =      F    k-point downsampling of WAVECAR
   LCHARG       =      F    write CHGCAR
   LVTOT        =      F    write LOCPOT, total local potential
   LVHAR        =      F    write LOCPOT, Hartree potential only
   LELF         =      F    write electronic localiz. function (ELF)
   LORBIT       =      0    0 simple, 1 ext, 2 COOP (PROOUT), +10 PAW based schemes


 Dipole corrections
   LMONO  =      F    monopole corrections only (constant potential shift)
   LDIPOL =      F    correct potential (dipole corrections)
   IDIPOL =      0    1-x, 2-y, 3-z, 4-all directions 
   EPSILON=  1.0000000 bulk dielectric constant

 Exchange correlation treatment:
   GGA     =    SR    GGA type
   LEXCH   =    47    internal setting for exchange type
   VOSKOWN=      1    Vosko Wilk Nusair interpolation
   LHFCALC =     F    Hartree Fock is set to
   LHFONE  =     F    Hartree Fock one center treatment
   AEXX    =    0.0000 exact exchange contribution

 vdW DFT:
   LUSE_VDW   =     T    switch on vdW DFT
   Zab_VDW    =-.8491    correlation parameter
   PARAM1     =0.3200
   PARAM2     =1.0000
   PARAM3     =0.0000
   -- rVV10 --
   BPARAM     = 6.3000
   CPARAM     = 0.0093

 Linear response parameters
   LEPSILON=     F    determine dielectric tensor
   LRPA    =     F    only Hartree local field effects (RPA)
   LNABLA  =     F    use nabla operator in PAW spheres
   LVEL    =     F    velocity operator in full k-point grid
   LINTERFAST=   F  fast interpolation
   KINTER  =     0    interpolate to denser k-point grid
   CSHIFT  =0.1000    complex shift for real part using Kramers Kronig
   OMEGAMAX=  -1.0    maximum frequency
   DEG_THRESHOLD= 0.2000000E-02 threshold for treating states as degnerate
   RTIME   =   -0.100 relaxation time in fs
  (WPLASMAI=    0.000 imaginary part of plasma frequency in eV, 0.658/RTIME)
   DFIELD  = 0.0000000 0.0000000 0.0000000 field for delta impulse in time
 
 Orbital magnetization related:
   ORBITALMAG=     F  switch on orbital magnetization
   LCHIMAG   =     F  perturbation theory with respect to B field
   DQ        =  0.001000  dq finite difference perturbation B field
   LLRAUG    =     F  two centre corrections for induced B field



--------------------------------------------------------------------------------------------------------


 Static calculation
 charge density and potential will be updated during run
 non-spin polarized calculation
 Variant of blocked Davidson
 Davidson routine will perform the subspace rotation
 perform sub-space diagonalisation
    after iterative eigenvector-optimisation
 modified Broyden-mixing scheme, WC =      100.0
 initial mixing is a Kerker type mixing with AMIX =  0.4000 and BMIX =      1.0000
 Hartree-type preconditioning will be used
 using additional bands           51
 real space projection scheme for non local part
 use partial core corrections
 calculate Harris-corrections to forces 
   (improved forces if not selfconsistent)
 use gradient corrections 
 use of overlap-Matrix (Vanderbilt PP)
 Methfessel and Paxton  Order N= 1 SIGMA  =   0.10


--------------------------------------------------------------------------------------------------------


  energy-cutoff  :      400.00
  volume of cell :     2150.83
      direct lattice vectors                 reciprocal lattice vectors
     8.040000000  0.000000000  0.000000000     0.124378109  0.000000000  0.000000000
     0.000000000  8.527707781  0.000000000     0.000000000  0.117264806  0.000000000
     0.000000000  0.000000000 31.370277041     0.000000000  0.000000000  0.031877309

  length of vectors
     8.040000000  8.527707781 31.370277041     0.124378109  0.117264806  0.031877309


 
 k-points in units of 2pi/SCALE and weight: K-points                                
   0.00000000  0.00000000  0.00000000       0.111
   0.04145937  0.00000000  0.00000000       0.222
   0.00000000  0.03908827  0.00000000       0.222
   0.04145937  0.03908827  0.00000000       0.222
  -0.04145937  0.03908827  0.00000000       0.222
 
 k-points in reciprocal lattice and weights: K-points                                
   0.00000000  0.00000000  0.00000000       0.111
   0.33333333  0.00000000  0.00000000       0.222
   0.00000000  0.33333333  0.00000000       0.222
   0.33333333  0.33333333  0.00000000       0.222
  -0.33333333  0.33333333  0.00000000       0.222
 
 position of ions in fractional coordinates (direct lattice) 
   0.00000000  0.00000000  0.00000000
   0.50000000  0.00000000  0.00000000
   0.00000000  0.33333342  0.00000000
   0.50000000  0.33333342  0.00000000
   0.00000000  0.66666684  0.00000000
   0.50000000  0.66666684  0.00000000
   0.25000000  0.49999954  0.04530658
   0.75000000  0.49999954  0.04530658
   0.25000000  0.16666612  0.04530658
   0.75000000  0.16666612  0.04530658
   0.25000000  0.83333296  0.04530658
   0.75000000  0.83333296  0.04530658
   0.99999876  0.99999791  0.09015700
   0.49999876  0.99999791  0.09107921
   0.99999876  0.33332873  0.09015285
   0.49999876  0.33332990  0.09107570
   0.99999876  0.66667153  0.09015413
   0.49999876  0.66667036  0.09107666
   0.24669279  0.16666026  0.13671126
   0.75330348  0.16666026  0.13671126
   0.24669279  0.50000189  0.13670871
   0.75330348  0.50000072  0.13670871
   0.24669279  0.83333648  0.13671221
   0.75330348  0.83333531  0.13671221
   0.49999751  0.33333107  0.18037424
   0.49999751  0.99999909  0.18037839
   0.49999751  0.66666684  0.18037552
   0.99999751  0.66667270  0.18206502
   0.99999751  0.33332756  0.18206215
   0.99999751  0.99999557  0.18207044
   0.24033955  0.83333179  0.22769165
   0.75965672  0.83333179  0.22769165
   0.24033706  0.49999837  0.22768463
   0.75965920  0.49999954  0.22768495
   0.24033831  0.16666612  0.22768941
   0.75965672  0.16666612  0.22768910
   0.49999876  0.33332990  0.26726127
   0.49999751  0.99999791  0.26726541
   0.49999751  0.66666919  0.26726222
   0.99999751  0.66667036  0.27911739
   0.99999751  0.33332873  0.27911612
   0.99999751  0.99999674  0.27912058
   0.24627736  0.16666495  0.31857513
   0.75371766  0.16666495  0.31857513
   0.24628607  0.49999837  0.31856971
   0.75371144  0.49999954  0.31857003
   0.24627363  0.83333296  0.31857736
   0.75372139  0.83333296  0.31857736
   0.49999876  0.99999909  0.35494937
   0.49999751  0.33333342  0.35494809
   0.49999751  0.66666567  0.35494809
   0.91751990  0.88337337  0.42521269
   0.07350622  0.00465893  0.40078447
   0.03531343  0.02279159  0.44653638
   0.09636194  0.87391245  0.43882207
   0.01029726  0.95303571  0.42435870
 
 position of ions in cartesian coordinates  (Angst):
   0.00000000  0.00000000  0.00000000
   4.02000000  0.00000000  0.00000000
   0.00000000  2.84257000  0.00000000
   4.02000000  2.84257000  0.00000000
   0.00000000  5.68514000  0.00000000
   4.02000000  5.68514000  0.00000000
   2.01000000  4.26385000  1.42128000
   6.03000000  4.26385000  1.42128000
   2.01000000  1.42128000  1.42128000
   6.03000000  1.42128000  1.42128000
   2.01000000  7.10642000  1.42128000
   6.03000000  7.10642000  1.42128000
   8.03999000  8.52769000  2.82825000
   4.01999000  8.52769000  2.85718000
   8.03999000  2.84253000  2.82812000
   4.01999000  2.84254000  2.85707000
   8.03999000  5.68518000  2.82816000
   4.01999000  5.68517000  2.85710000
   1.98341000  1.42123000  4.28867000
   6.05656000  1.42123000  4.28867000
   1.98341000  4.26387000  4.28859000
   6.05656000  4.26386000  4.28859000
   1.98341000  7.10645000  4.28870000
   6.05656000  7.10644000  4.28870000
   4.01998000  2.84255000  5.65839000
   4.01998000  8.52770000  5.65852000
   4.01998000  5.68514000  5.65843000
   8.03998000  5.68519000  5.71143000
   8.03998000  2.84252000  5.71134000
   8.03998000  8.52767000  5.71160000
   1.93233000  7.10641000  7.14275000
   6.10764000  7.10641000  7.14275000
   1.93231000  4.26384000  7.14253000
   6.10766000  4.26385000  7.14254000
   1.93232000  1.42128000  7.14268000
   6.10764000  1.42128000  7.14267000
   4.01999000  2.84254000  8.38406000
   4.01998000  8.52769000  8.38419000
   4.01998000  5.68516000  8.38409000
   8.03998000  5.68517000  8.75599000
   8.03998000  2.84253000  8.75595000
   8.03998000  8.52768000  8.75609000
   1.98007000  1.42127000  9.99379000
   6.05989000  1.42127000  9.99379000
   1.98014000  4.26384000  9.99362000
   6.05984000  4.26385000  9.99363000
   1.98004000  7.10642000  9.99386000
   6.05992000  7.10642000  9.99386000
   4.01999000  8.52770000 11.13486000
   4.01998000  2.84257000 11.13482000
   4.01998000  5.68513000 11.13482000
   7.37686000  7.53315000 13.33904000
   0.59099000  0.03973000 12.57272000
   0.28392000  0.19436000 14.00797000
   0.77475000  7.45247000 13.76597000
   0.08279000  8.12721000 13.31225000
 


--------------------------------------------------------------------------------------------------------


 k-point  1 :   0.0000 0.0000 0.0000  plane waves:   38971
 k-point  2 :   0.3333 0.0000 0.0000  plane waves:   39024
 k-point  3 :   0.0000 0.3333 0.0000  plane waves:   39118
 k-point  4 :   0.3333 0.3333 0.0000  plane waves:   39114
 k-point  5 :  -0.3333 0.3333 0.0000  plane waves:   39114

 maximum and minimum number of plane-waves per node :      9806     9725

 maximum number of plane-waves:     39118
 maximum index in each direction: 
   IXMAX=   13   IYMAX=   13   IZMAX=   51
   IXMIN=  -13   IYMIN=  -14   IZMIN=  -51


 real space projection operators:
  total allocation   :      12820.15 KBytes
  max/ min on nodes  :       3217.20       3194.66


 parallel 3D FFT for wavefunctions:
    minimum data exchange during FFTs selected (reduces bandwidth)
 parallel 3D FFT for charge:
    minimum data exchange during FFTs selected (reduces bandwidth)


 total amount of memory used by VASP MPI-rank0   341988. kBytes
=======================================================================

   base      :      30000. kBytes
   nonlr-proj:       5691. kBytes
   fftplans  :      20197. kBytes
   grid      :      37288. kBytes
   one-center:        217. kBytes
   wavefun   :     248595. kBytes
 
     INWAV:  cpu time    0.0000: real time    0.0000
 Broyden mixing: mesh for mixing (old mesh)
   NGX = 27   NGY = 27   NGZ =103
  (NGX  = 80   NGY  = 84   NGZ  =320)
  gives a total of  75087 points

 initial charge density was supplied:
 charge density of overlapping atoms calculated
 number of electron     518.0000000 magnetization 
 keeping initial charge density in first step


--------------------------------------------------------------------------------------------------------


 Maximum index for non-local projection operator          458
 Maximum index for augmentation-charges         1830 (set IRDMAX)


--------------------------------------------------------------------------------------------------------


 First call to EWALD:  gamma=   0.137
 Maximum number of real-space cells 4x 4x 1
 Maximum number of reciprocal cells 2x 2x 6

    FEWALD:  cpu time    0.0030: real time    0.0114


--------------------------------------- Iteration      1(   1)  ---------------------------------------


vdW kernel read from vdw_kernel.bindat
  0.0000  0.2424  0.5071  0.7962  1.1119  1.4567  1.8333  2.2446  2.6937  3.1842
  3.7199  4.3049  4.9438  5.6415  6.4036  7.2358  8.1446  9.1372 10.2212 11.4050
 12.6979 14.1099 15.6519 17.3360 19.1751 21.1837 23.3773 25.7729 28.3892 31.2465
 34.3669 37.7748 41.4965 45.5611 50.0000
 
    POTLOK:  cpu time    9.9545: real time   16.6207
    SETDIJ:  cpu time    1.1186: real time    1.8771
     EDDAV:  cpu time   26.2450: real time   43.8061
       DOS:  cpu time    0.0027: real time    0.0051
    --------------------------------------------
      LOOP:  cpu time   37.3209: real time   62.3091

 eigenvalue-minimisations  :  3108
 total energy-change (2. order) : 0.3284410E+04  (-0.1988556E+05)
 number of electron     518.0000000 magnetization 
 augmentation part      518.0000000 magnetization 

 Free energy of the ion-electron system (eV)
  ---------------------------------------------------
  alpha Z        PSCENC =      1174.86337175
  Ewald energy   TEWEN  =    296587.49005197
  -Hartree energ DENC   =   -336033.90693281
  -exchange      EXHF   =         0.00000000
  -V(xc)+E(xc)   XCENC  =       123.42172980
  PAW double counting   =     35724.98968820   -34231.97544245
  entropy T*S    EENTRO =        -0.00897956
  eigenvalues    EBANDS =      2359.06011840
  atomic energy  EATOM  =     37580.47669015
  Solvation  Ediel_sol  =         0.00000000
  ---------------------------------------------------
  free energy    TOTEN  =      3284.41029545 eV

  energy without entropy =     3284.41927501  energy(sigma->0) =     3284.41328864


--------------------------------------------------------------------------------------------------------




--------------------------------------- Iteration      1(   2)  ---------------------------------------


     EDDAV:  cpu time   30.5716: real time   50.8665
       DOS:  cpu time    0.0030: real time    0.0054
    --------------------------------------------
      LOOP:  cpu time   30.5746: real time   50.8718

 eigenvalue-minimisations  :  3680
 total energy-change (2. order) :-0.3198031E+04  (-0.2946745E+04)
 number of electron     518.0000000 magnetization 
 augmentation part      518.0000000 magnetization 

 Free energy of the ion-electron system (eV)
  ---------------------------------------------------
  alpha Z        PSCENC =      1174.86337175
  Ewald energy   TEWEN  =    296587.49005197
  -Hartree energ DENC   =   -336033.90693281
  -exchange      EXHF   =         0.00000000
  -V(xc)+E(xc)   XCENC  =       123.42172980
  PAW double counting   =     35724.98968820   -34231.97544245
  entropy T*S    EENTRO =        -0.00080728
  eigenvalues    EBANDS =      -838.97905798
  atomic energy  EATOM  =     37580.47669015
  Solvation  Ediel_sol  =         0.00000000
  ---------------------------------------------------
  free energy    TOTEN  =        86.37929135 eV

  energy without entropy =       86.38009863  energy(sigma->0) =       86.37956044


--------------------------------------------------------------------------------------------------------




--------------------------------------- Iteration      1(   3)  ---------------------------------------


     EDDAV:  cpu time   30.5576: real time   50.8682
       DOS:  cpu time    0.0031: real time    0.0055
    --------------------------------------------
      LOOP:  cpu time   30.5607: real time   50.8738

 eigenvalue-minimisations  :  3680
 total energy-change (2. order) :-0.2481964E+03  (-0.2225477E+03)
 number of electron     518.0000000 magnetization 
 augmentation part      518.0000000 magnetization 

 Free energy of the ion-electron system (eV)
  ---------------------------------------------------
  alpha Z        PSCENC =      1174.86337175
  Ewald energy   TEWEN  =    296587.49005197
  -Hartree energ DENC   =   -336033.90693281
  -exchange      EXHF   =         0.00000000
  -V(xc)+E(xc)   XCENC  =       123.42172980
  PAW double counting   =     35724.98968820   -34231.97544245
  entropy T*S    EENTRO =         0.02891784
  eigenvalues    EBANDS =     -1087.20519632
  atomic energy  EATOM  =     37580.47669015
  Solvation  Ediel_sol  =         0.00000000
  ---------------------------------------------------
  free energy    TOTEN  =      -161.81712188 eV

  energy without entropy =     -161.84603972  energy(sigma->0) =     -161.82676116


--------------------------------------------------------------------------------------------------------




--------------------------------------- Iteration      1(   4)  ---------------------------------------


     EDDAV:  cpu time   33.8759: real time   56.4480
       DOS:  cpu time    0.0032: real time    0.0056
    --------------------------------------------
      LOOP:  cpu time   33.8791: real time   56.4536

 eigenvalue-minimisations  :  4160
 total energy-change (2. order) :-0.1331182E+02  (-0.1248944E+02)
 number of electron     518.0000000 magnetization 
 augmentation part      518.0000000 magnetization 

 Free energy of the ion-electron system (eV)
  ---------------------------------------------------
  alpha Z        PSCENC =      1174.86337175
  Ewald energy   TEWEN  =    296587.49005197
  -Hartree energ DENC   =   -336033.90693281
  -exchange      EXHF   =         0.00000000
  -V(xc)+E(xc)   XCENC  =       123.42172980
  PAW double counting   =     35724.98968820   -34231.97544245
  entropy T*S    EENTRO =         0.04673467
  eigenvalues    EBANDS =     -1100.53483624
  atomic energy  EATOM  =     37580.47669015
  Solvation  Ediel_sol  =         0.00000000
  ---------------------------------------------------
  free energy    TOTEN  =      -175.12894496 eV

  energy without entropy =     -175.17567963  energy(sigma->0) =     -175.14452318


--------------------------------------------------------------------------------------------------------




--------------------------------------- Iteration      1(   5)  ---------------------------------------


     EDDAV:  cpu time   32.9764: real time   54.8514
       DOS:  cpu time    0.0032: real time    0.0056
    CHARGE:  cpu time    0.9098: real time    1.5171
    MIXING:  cpu time    0.0078: real time    0.0165
    --------------------------------------------
      LOOP:  cpu time   33.8973: real time   56.3906

 eigenvalue-minimisations  :  3960
 total energy-change (2. order) :-0.3659985E+00  (-0.3632374E+00)
 number of electron     517.9999649 magnetization 
 augmentation part      151.1691497 magnetization 

 Broyden mixing:
  rms(total) = 0.63140E+01    rms(broyden)= 0.63139E+01
  rms(prec ) = 0.63930E+01
  weight for this iteration     100.00

 Free energy of the ion-electron system (eV)
  ---------------------------------------------------
  alpha Z        PSCENC =      1174.86337175
  Ewald energy   TEWEN  =    296587.49005197
  -Hartree energ DENC   =   -336033.90693281
  -exchange      EXHF   =         0.00000000
  -V(xc)+E(xc)   XCENC  =       123.42172980
  PAW double counting   =     35724.98968820   -34231.97544245
  entropy T*S    EENTRO =         0.04624127
  eigenvalues    EBANDS =     -1100.90034136
  atomic energy  EATOM  =     37580.47669015
  Solvation  Ediel_sol  =         0.00000000
  ---------------------------------------------------
  free energy    TOTEN  =      -175.49494349 eV

  energy without entropy =     -175.54118476  energy(sigma->0) =     -175.51035724


--------------------------------------------------------------------------------------------------------




--------------------------------------- Iteration      1(   6)  ---------------------------------------


    POTLOK:  cpu time    9.7686: real time   16.3034
    SETDIJ:  cpu time    1.1255: real time    1.8878
     EDDAV:  cpu time   29.8604: real time   49.8011
       DOS:  cpu time    0.0035: real time    0.0059
    CHARGE:  cpu time    0.9436: real time    1.5756
    MIXING:  cpu time    0.0082: real time    0.0173
    --------------------------------------------
      LOOP:  cpu time   41.7097: real time   69.5911

 eigenvalue-minimisations  :  3544
 total energy-change (2. order) :-0.1641426E+02  (-0.6754795E+01)
 number of electron     517.9999549 magnetization 
 augmentation part      158.6158831 magnetization 

 Broyden mixing:
  rms(total) = 0.74246E+01    rms(broyden)= 0.74245E+01
  rms(prec ) = 0.88343E+01
  weight for this iteration     100.00

 eigenvalues of (default mixing * dielectric matrix)
  average eigenvalue GAMMA=   0.3354
  0.3354

 Free energy of the ion-electron system (eV)
  ---------------------------------------------------
  alpha Z        PSCENC =      1174.86337175
  Ewald energy   TEWEN  =    296587.49005197
  -Hartree energ DENC   =   -335302.63114099
  -exchange      EXHF   =         0.00000000
  -V(xc)+E(xc)   XCENC  =       113.02514263
  PAW double counting   =     39013.28707972   -37586.92813934
  entropy T*S    EENTRO =         0.00611898
  eigenvalues    EBANDS =     -1771.49837911
  atomic energy  EATOM  =     37580.47669015
  Solvation  Ediel_sol  =         0.00000000
  ---------------------------------------------------
  free energy    TOTEN  =      -191.90920424 eV

  energy without entropy =     -191.91532322  energy(sigma->0) =     -191.91124390


--------------------------------------------------------------------------------------------------------




--------------------------------------- Iteration      1(   7)  ---------------------------------------


    POTLOK:  cpu time    9.7546: real time   16.2523
    SETDIJ:  cpu time    1.1280: real time    1.8838
     EDDAV:  cpu time   35.8017: real time   59.5892
       DOS:  cpu time    0.0035: real time    0.0059
    CHARGE:  cpu time    0.9098: real time    1.5142
    MIXING:  cpu time    0.0095: real time    0.0241
    --------------------------------------------
      LOOP:  cpu time   47.6072: real time   79.2695

 eigenvalue-minimisations  :  4440
 total energy-change (2. order) :-0.2576525E+02  (-0.1459942E+02)
 number of electron     517.9999592 magnetization 
 augmentation part      155.8659483 magnetization 

 Broyden mixing:
  rms(total) = 0.63108E+01    rms(broyden)= 0.63106E+01
  rms(prec ) = 0.90952E+01
  weight for this iteration     100.00

 eigenvalues of (default mixing * dielectric matrix)
  average eigenvalue GAMMA=   0.4774
  0.7998  0.1550

 Free energy of the ion-electron system (eV)
  ---------------------------------------------------
  alpha Z        PSCENC =      1174.86337175
  Ewald energy   TEWEN  =    296587.49005197
  -Hartree energ DENC   =   -335811.23481497
  -exchange      EXHF   =         0.00000000
  -V(xc)+E(xc)   XCENC  =       111.95133658
  PAW double counting   =     39633.32155017   -38213.80441445
  entropy T*S    EENTRO =         0.02895439
  eigenvalues    EBANDS =     -1280.76717726
  atomic energy  EATOM  =     37580.47669015
  Solvation  Ediel_sol  =         0.00000000
  ---------------------------------------------------
  free energy    TOTEN  =      -217.67445168 eV

  energy without entropy =     -217.70340607  energy(sigma->0) =     -217.68410314


--------------------------------------------------------------------------------------------------------




--------------------------------------- Iteration      1(   8)  ---------------------------------------


    POTLOK:  cpu time    9.7812: real time   16.2925
    SETDIJ:  cpu time    1.1295: real time    1.8883
     EDDAV:  cpu time   37.1600: real time   61.8844
       DOS:  cpu time    0.0031: real time    0.0055
    CHARGE:  cpu time    0.9157: real time    1.5279
    MIXING:  cpu time    0.0093: real time    0.0178
    --------------------------------------------
      LOOP:  cpu time   48.9987: real time   81.6164

 eigenvalue-minimisations  :  4666
 total energy-change (2. order) :-0.5669398E+02  (-0.1189957E+02)
 number of electron     517.9999601 magnetization 
 augmentation part      153.4563290 magnetization 

 Broyden mixing:
  rms(total) = 0.80595E+01    rms(broyden)= 0.80593E+01
  rms(prec ) = 0.10763E+02
  weight for this iteration     100.00

 eigenvalues of (default mixing * dielectric matrix)
  average eigenvalue GAMMA=   0.7342
  1.9151  0.1874  0.1002

 Free energy of the ion-electron system (eV)
  ---------------------------------------------------
  alpha Z        PSCENC =      1174.86337175
  Ewald energy   TEWEN  =    296587.49005197
  -Hartree energ DENC   =   -336030.46946023
  -exchange      EXHF   =         0.00000000
  -V(xc)+E(xc)   XCENC  =       110.43939127
  PAW double counting   =     40640.46012859   -39233.77932695
  entropy T*S    EENTRO =         0.00502973
  eigenvalues    EBANDS =     -1103.85430801
  atomic energy  EATOM  =     37580.47669015
  Solvation  Ediel_sol  =         0.00000000
  ---------------------------------------------------
  free energy    TOTEN  =      -274.36843173 eV

  energy without entropy =     -274.37346146  energy(sigma->0) =     -274.37010831


--------------------------------------------------------------------------------------------------------




--------------------------------------- Iteration      1(   9)  ---------------------------------------


    POTLOK:  cpu time    9.7499: real time   16.2736
    SETDIJ:  cpu time    1.1222: real time    1.8780
     EDDAV:  cpu time   32.9219: real time   54.9088
       DOS:  cpu time    0.0035: real time    0.0059
    CHARGE:  cpu time    0.9172: real time    1.5313
    MIXING:  cpu time    0.0101: real time    0.0188
    --------------------------------------------
      LOOP:  cpu time   44.7248: real time   74.6165

 eigenvalue-minimisations  :  4056
 total energy-change (2. order) : 0.5516374E+02  (-0.1059612E+02)
 number of electron     517.9999596 magnetization 
 augmentation part      160.2318873 magnetization 

 Broyden mixing:
  rms(total) = 0.63629E+01    rms(broyden)= 0.63628E+01
  rms(prec ) = 0.74433E+01
  weight for this iteration     100.00

 eigenvalues of (default mixing * dielectric matrix)
  average eigenvalue GAMMA=   0.6694
  2.1212  0.2254  0.2254  0.1054

 Free energy of the ion-electron system (eV)
  ---------------------------------------------------
  alpha Z        PSCENC =      1174.86337175
  Ewald energy   TEWEN  =    296587.49005197
  -Hartree energ DENC   =   -335561.09071710
  -exchange      EXHF   =         0.00000000
  -V(xc)+E(xc)   XCENC  =       105.66859228
  PAW double counting   =     44319.40602474   -42960.54073828
  entropy T*S    EENTRO =        -0.03389888
  eigenvalues    EBANDS =     -1465.44406497
  atomic energy  EATOM  =     37580.47669015
  Solvation  Ediel_sol  =         0.00000000
  ---------------------------------------------------
  free energy    TOTEN  =      -219.20468835 eV

  energy without entropy =     -219.17078947  energy(sigma->0) =     -219.19338873


--------------------------------------------------------------------------------------------------------




--------------------------------------- Iteration      1(  10)  ---------------------------------------


    POTLOK:  cpu time    9.7937: real time   16.3236
    SETDIJ:  cpu time    1.1265: real time    1.8841
     EDDAV:  cpu time   29.2820: real time   48.7766
       DOS:  cpu time    0.0037: real time    0.0061
    CHARGE:  cpu time    0.9642: real time    1.6119
    MIXING:  cpu time    0.0172: real time    0.0375
    --------------------------------------------
      LOOP:  cpu time   41.1873: real time   68.6398

 eigenvalue-minimisations  :  3532
 total energy-change (2. order) : 0.4241419E+02  (-0.6929334E+01)
 number of electron     517.9999616 magnetization 
 augmentation part      161.6825969 magnetization 

 Broyden mixing:
  rms(total) = 0.39466E+01    rms(broyden)= 0.39464E+01
  rms(prec ) = 0.49546E+01
  weight for this iteration     100.00

 eigenvalues of (default mixing * dielectric matrix)
  average eigenvalue GAMMA=   0.6473
  2.0034  0.6850  0.1009  0.2237  0.2237

 Free energy of the ion-electron system (eV)
  ---------------------------------------------------
  alpha Z        PSCENC =      1174.86337175
  Ewald energy   TEWEN  =    296587.49005197
  -Hartree energ DENC   =   -335414.36600831
  -exchange      EXHF   =         0.00000000
  -V(xc)+E(xc)   XCENC  =       105.64541079
  PAW double counting   =     45246.26012027   -43894.36833385
  entropy T*S    EENTRO =         0.01164385
  eigenvalues    EBANDS =     -1562.80344355
  atomic energy  EATOM  =     37580.47669015
  Solvation  Ediel_sol  =         0.00000000
  ---------------------------------------------------
  free energy    TOTEN  =      -176.79049694 eV

  energy without entropy =     -176.80214080  energy(sigma->0) =     -176.79437823


--------------------------------------------------------------------------------------------------------




--------------------------------------- Iteration      1(  11)  ---------------------------------------


    POTLOK:  cpu time    9.7598: real time   16.2592
    SETDIJ:  cpu time    1.1274: real time    1.8831
     EDDAV:  cpu time   28.6497: real time   47.7236
       DOS:  cpu time    0.0036: real time    0.0060
    CHARGE:  cpu time    0.8956: real time    1.5011
    MIXING:  cpu time    0.0108: real time    0.0229
    --------------------------------------------
      LOOP:  cpu time   40.4469: real time   67.3960

 eigenvalue-minimisations  :  3456
 total energy-change (2. order) : 0.1599662E+02  (-0.4201243E+01)
 number of electron     517.9999604 magnetization 
 augmentation part      160.6715972 magnetization 

 Broyden mixing:
  rms(total) = 0.27135E+01    rms(broyden)= 0.27134E+01
  rms(prec ) = 0.31527E+01
  weight for this iteration     100.00

 eigenvalues of (default mixing * dielectric matrix)
  average eigenvalue GAMMA=   0.6122
  1.9131  0.7921  0.4479  0.1012  0.2094  0.2094

 Free energy of the ion-electron system (eV)
  ---------------------------------------------------
  alpha Z        PSCENC =      1174.86337175
  Ewald energy   TEWEN  =    296587.49005197
  -Hartree energ DENC   =   -335533.67387905
  -exchange      EXHF   =         0.00000000
  -V(xc)+E(xc)   XCENC  =       108.36749646
  PAW double counting   =     45340.96805740   -43980.39293205
  entropy T*S    EENTRO =        -0.02115315
  eigenvalues    EBANDS =     -1438.87158070
  atomic energy  EATOM  =     37580.47669015
  Solvation  Ediel_sol  =         0.00000000
  ---------------------------------------------------
  free energy    TOTEN  =      -160.79387721 eV

  energy without entropy =     -160.77272406  energy(sigma->0) =     -160.78682616


--------------------------------------------------------------------------------------------------------




--------------------------------------- Iteration      1(  12)  ---------------------------------------


    POTLOK:  cpu time    9.7605: real time   16.3132
    SETDIJ:  cpu time    1.1242: real time    1.8866
     EDDAV:  cpu time   28.8080: real time   48.0285
       DOS:  cpu time    0.0037: real time    0.0061
    CHARGE:  cpu time    0.9142: real time    1.5262
    MIXING:  cpu time    0.0140: real time    0.0294
    --------------------------------------------
      LOOP:  cpu time   40.6248: real time   67.7901

 eigenvalue-minimisations  :  3464
 total energy-change (2. order) : 0.2483817E+01  (-0.2167073E+01)
 number of electron     517.9999604 magnetization 
 augmentation part      160.3179975 magnetization 

 Broyden mixing:
  rms(total) = 0.22539E+01    rms(broyden)= 0.22538E+01
  rms(prec ) = 0.30319E+01
  weight for this iteration     100.00

 eigenvalues of (default mixing * dielectric matrix)
  average eigenvalue GAMMA=   0.6042
  2.0442  0.6332  0.6332  0.4084  0.1012  0.2045  0.2045

 Free energy of the ion-electron system (eV)
  ---------------------------------------------------
  alpha Z        PSCENC =      1174.86337175
  Ewald energy   TEWEN  =    296587.49005197
  -Hartree energ DENC   =   -335535.36750361
  -exchange      EXHF   =         0.00000000
  -V(xc)+E(xc)   XCENC  =       109.54021465
  PAW double counting   =     45249.96785739   -43884.70595948
  entropy T*S    EENTRO =        -0.03266388
  eigenvalues    EBANDS =     -1440.54211904
  atomic energy  EATOM  =     37580.47669015
  Solvation  Ediel_sol  =         0.00000000
  ---------------------------------------------------
  free energy    TOTEN  =      -158.31006010 eV

  energy without entropy =     -158.27739622  energy(sigma->0) =     -158.29917214


--------------------------------------------------------------------------------------------------------




--------------------------------------- Iteration      1(  13)  ---------------------------------------


    POTLOK:  cpu time    9.7440: real time   16.2969
    SETDIJ:  cpu time    1.1182: real time    1.8731
     EDDAV:  cpu time   28.3230: real time   47.3510
       DOS:  cpu time    0.0038: real time    0.0062
    CHARGE:  cpu time    0.8897: real time    1.4912
    MIXING:  cpu time    0.0153: real time    0.0316
    --------------------------------------------
      LOOP:  cpu time   40.0941: real time   67.0499

 eigenvalue-minimisations  :  3360
 total energy-change (2. order) : 0.3134966E+01  (-0.5305554E+00)
 number of electron     517.9999612 magnetization 
 augmentation part      160.2753026 magnetization 

 Broyden mixing:
  rms(total) = 0.12042E+01    rms(broyden)= 0.12042E+01
  rms(prec ) = 0.14610E+01
  weight for this iteration     100.00

 eigenvalues of (default mixing * dielectric matrix)
  average eigenvalue GAMMA=   0.5831
  2.0579  0.6703  0.6703  0.3746  0.3746  0.1012  0.2080  0.2080

 Free energy of the ion-electron system (eV)
  ---------------------------------------------------
  alpha Z        PSCENC =      1174.86337175
  Ewald energy   TEWEN  =    296587.49005197
  -Hartree energ DENC   =   -335507.50841968
  -exchange      EXHF   =         0.00000000
  -V(xc)+E(xc)   XCENC  =       109.61525266
  PAW double counting   =     45395.16592023   -44031.25725834
  entropy T*S    EENTRO =        -0.01411415
  eigenvalues    EBANDS =     -1464.00658831
  atomic energy  EATOM  =     37580.47669015
  Solvation  Ediel_sol  =         0.00000000
  ---------------------------------------------------
  free energy    TOTEN  =      -155.17509372 eV

  energy without entropy =     -155.16097957  energy(sigma->0) =     -155.17038901


--------------------------------------------------------------------------------------------------------




--------------------------------------- Iteration      1(  14)  ---------------------------------------


    POTLOK:  cpu time    9.8162: real time   16.2825
    SETDIJ:  cpu time    1.1362: real time    1.8903
     EDDAV:  cpu time   29.0440: real time   48.4399
       DOS:  cpu time    0.0038: real time    0.0062
    CHARGE:  cpu time    0.8638: real time    1.4498
    MIXING:  cpu time    0.0145: real time    0.0248
    --------------------------------------------
      LOOP:  cpu time   40.8784: real time   68.0935

 eigenvalue-minimisations  :  3440
 total energy-change (2. order) : 0.7553309E+00  (-0.1742213E+00)
 number of electron     517.9999614 magnetization 
 augmentation part      160.2935095 magnetization 

 Broyden mixing:
  rms(total) = 0.74614E+00    rms(broyden)= 0.74609E+00
  rms(prec ) = 0.80958E+00
  weight for this iteration     100.00

 eigenvalues of (default mixing * dielectric matrix)
  average eigenvalue GAMMA=   0.5817
  1.9885  0.7949  0.7949  0.4220  0.4220  0.1012  0.2056  0.2056  0.3002

 Free energy of the ion-electron system (eV)
  ---------------------------------------------------
  alpha Z        PSCENC =      1174.86337175
  Ewald energy   TEWEN  =    296587.49005197
  -Hartree energ DENC   =   -335508.80108721
  -exchange      EXHF   =         0.00000000
  -V(xc)+E(xc)   XCENC  =       109.53704269
  PAW double counting   =     45328.03600402   -43964.47862489
  entropy T*S    EENTRO =         0.01358929
  eigenvalues    EBANDS =     -1461.55680060
  atomic energy  EATOM  =     37580.47669015
  Solvation  Ediel_sol  =         0.00000000
  ---------------------------------------------------
  free energy    TOTEN  =      -154.41976283 eV

  energy without entropy =     -154.43335211  energy(sigma->0) =     -154.42429259


--------------------------------------------------------------------------------------------------------




--------------------------------------- Iteration      1(  15)  ---------------------------------------


    POTLOK:  cpu time    9.7566: real time   16.2739
    SETDIJ:  cpu time    1.1245: real time    1.8786
     EDDAV:  cpu time   29.1149: real time   48.4651
       DOS:  cpu time    0.0037: real time    0.0061
    CHARGE:  cpu time    0.8698: real time    1.4520
    MIXING:  cpu time    0.0142: real time    0.0291
    --------------------------------------------
      LOOP:  cpu time   40.8837: real time   68.1047

 eigenvalue-minimisations  :  3480
 total energy-change (2. order) :-0.7453925E-01  (-0.8531980E-01)
 number of electron     517.9999615 magnetization 
 augmentation part      160.2293189 magnetization 

 Broyden mixing:
  rms(total) = 0.72218E+00    rms(broyden)= 0.72215E+00
  rms(prec ) = 0.83518E+00
  weight for this iteration     100.00

 eigenvalues of (default mixing * dielectric matrix)
  average eigenvalue GAMMA=   0.6208
  1.9064  1.0884  1.0884  0.4573  0.4573  0.4362  0.1012  0.2070  0.2070  0.2584

 Free energy of the ion-electron system (eV)
  ---------------------------------------------------
  alpha Z        PSCENC =      1174.86337175
  Ewald energy   TEWEN  =    296587.49005197
  -Hartree energ DENC   =   -335521.80008258
  -exchange      EXHF   =         0.00000000
  -V(xc)+E(xc)   XCENC  =       109.54843417
  PAW double counting   =     45146.21277479   -43781.89083399
  entropy T*S    EENTRO =         0.01284353
  eigenvalues    EBANDS =     -1449.40755186
  atomic energy  EATOM  =     37580.47669015
  Solvation  Ediel_sol  =         0.00000000
  ---------------------------------------------------
  free energy    TOTEN  =      -154.49430208 eV

  energy without entropy =     -154.50714561  energy(sigma->0) =     -154.49858325


--------------------------------------------------------------------------------------------------------




--------------------------------------- Iteration      1(  16)  ---------------------------------------


    POTLOK:  cpu time    9.7733: real time   16.2782
    SETDIJ:  cpu time    1.1265: real time    1.8831
     EDDAV:  cpu time   28.2052: real time   46.9604
       DOS:  cpu time    0.0038: real time    0.0062
    CHARGE:  cpu time    0.8545: real time    1.4309
    MIXING:  cpu time    0.0152: real time    0.0306
    --------------------------------------------
      LOOP:  cpu time   39.9784: real time   66.5894

 eigenvalue-minimisations  :  3394
 total energy-change (2. order) :-0.3389846E-01  (-0.3069436E-01)
 number of electron     517.9999616 magnetization 
 augmentation part      160.1161456 magnetization 

 Broyden mixing:
  rms(total) = 0.65031E+00    rms(broyden)= 0.65029E+00
  rms(prec ) = 0.78103E+00
  weight for this iteration     100.00

 eigenvalues of (default mixing * dielectric matrix)
  average eigenvalue GAMMA=   0.6627
  1.7914  1.4512  1.4512  0.5382  0.5382  0.3809  0.3809  0.1012  0.2064  0.2064
  0.2435

 Free energy of the ion-electron system (eV)
  ---------------------------------------------------
  alpha Z        PSCENC =      1174.86337175
  Ewald energy   TEWEN  =    296587.49005197
  -Hartree energ DENC   =   -335546.32741772
  -exchange      EXHF   =         0.00000000
  -V(xc)+E(xc)   XCENC  =       109.75245825
  PAW double counting   =     44907.88890238   -43542.26005510
  entropy T*S    EENTRO =         0.01134459
  eigenvalues    EBANDS =     -1426.42354681
  atomic energy  EATOM  =     37580.47669015
  Solvation  Ediel_sol  =         0.00000000
  ---------------------------------------------------
  free energy    TOTEN  =      -154.52820054 eV

  energy without entropy =     -154.53954513  energy(sigma->0) =     -154.53198207


--------------------------------------------------------------------------------------------------------




--------------------------------------- Iteration      1(  17)  ---------------------------------------


    POTLOK:  cpu time    9.7826: real time   16.3333
    SETDIJ:  cpu time    1.1261: real time    1.8863
     EDDAV:  cpu time   29.1214: real time   48.6071
       DOS:  cpu time    0.0038: real time    0.0062
    CHARGE:  cpu time    0.8824: real time    1.4745
    MIXING:  cpu time    0.0140: real time    0.0303
    --------------------------------------------
      LOOP:  cpu time   40.9303: real time   68.3377

 eigenvalue-minimisations  :  3504
 total energy-change (2. order) : 0.2942646E+00  (-0.5217443E-01)
 number of electron     517.9999610 magnetization 
 augmentation part      160.0567545 magnetization 

 Broyden mixing:
  rms(total) = 0.35540E+00    rms(broyden)= 0.35536E+00
  rms(prec ) = 0.39491E+00
  weight for this iteration     100.00

 eigenvalues of (default mixing * dielectric matrix)
  average eigenvalue GAMMA=   0.6915
  1.8533  1.6911  1.6911  0.5800  0.5800  0.4446  0.4446  0.1012  0.2065  0.2065
  0.2804  0.2189

 Free energy of the ion-electron system (eV)
  ---------------------------------------------------
  alpha Z        PSCENC =      1174.86337175
  Ewald energy   TEWEN  =    296587.49005197
  -Hartree energ DENC   =   -335560.92825426
  -exchange      EXHF   =         0.00000000
  -V(xc)+E(xc)   XCENC  =       110.14086820
  PAW double counting   =     44629.70834082   -43262.43219337
  entropy T*S    EENTRO =        -0.00074555
  eigenvalues    EBANDS =     -1413.55206561
  atomic energy  EATOM  =     37580.47669015
  Solvation  Ediel_sol  =         0.00000000
  ---------------------------------------------------
  free energy    TOTEN  =      -154.23393592 eV

  energy without entropy =     -154.23319036  energy(sigma->0) =     -154.23368740


--------------------------------------------------------------------------------------------------------




--------------------------------------- Iteration      1(  18)  ---------------------------------------


    POTLOK:  cpu time    9.7700: real time   16.3207
    SETDIJ:  cpu time    1.1188: real time    1.8755
     EDDAV:  cpu time   28.3278: real time   47.2833
       DOS:  cpu time    0.0037: real time    0.0062
    CHARGE:  cpu time    0.8799: real time    1.4745
    MIXING:  cpu time    0.0177: real time    0.0266
    --------------------------------------------
      LOOP:  cpu time   40.1180: real time   66.9869

 eigenvalue-minimisations  :  3384
 total energy-change (2. order) : 0.7716065E-01  (-0.3077558E-01)
 number of electron     517.9999608 magnetization 
 augmentation part      160.0410325 magnetization 

 Broyden mixing:
  rms(total) = 0.24313E+00    rms(broyden)= 0.24310E+00
  rms(prec ) = 0.26268E+00
  weight for this iteration     100.00

 eigenvalues of (default mixing * dielectric matrix)
  average eigenvalue GAMMA=   0.6685
  1.8750  1.7159  1.7159  0.5712  0.5712  0.5260  0.1012  0.3735  0.3735  0.2066
  0.2066  0.2272  0.2272

 Free energy of the ion-electron system (eV)
  ---------------------------------------------------
  alpha Z        PSCENC =      1174.86337175
  Ewald energy   TEWEN  =    296587.49005197
  -Hartree energ DENC   =   -335570.17089353
  -exchange      EXHF   =         0.00000000
  -V(xc)+E(xc)   XCENC  =       110.41574294
  PAW double counting   =     44489.17945095   -43121.33452671
  entropy T*S    EENTRO =        -0.00126635
  eigenvalues    EBANDS =     -1405.07539643
  atomic energy  EATOM  =     37580.47669015
  Solvation  Ediel_sol  =         0.00000000
  ---------------------------------------------------
  free energy    TOTEN  =      -154.15677527 eV

  energy without entropy =     -154.15550892  energy(sigma->0) =     -154.15635316


--------------------------------------------------------------------------------------------------------




--------------------------------------- Iteration      1(  19)  ---------------------------------------


    POTLOK:  cpu time    9.7628: real time   16.3268
    SETDIJ:  cpu time    1.1086: real time    1.8549
     EDDAV:  cpu time   27.9532: real time   46.6563
       DOS:  cpu time    0.0037: real time    0.0061
    CHARGE:  cpu time    0.8950: real time    1.4939
    MIXING:  cpu time    0.0168: real time    0.0358
    --------------------------------------------
      LOOP:  cpu time   39.7400: real time   66.3738

 eigenvalue-minimisations  :  3310
 total energy-change (2. order) : 0.2022537E-01  (-0.9016872E-02)
 number of electron     517.9999608 magnetization 
 augmentation part      160.0093864 magnetization 

 Broyden mixing:
  rms(total) = 0.19915E+00    rms(broyden)= 0.19914E+00
  rms(prec ) = 0.22823E+00
  weight for this iteration     100.00

 eigenvalues of (default mixing * dielectric matrix)
  average eigenvalue GAMMA=   0.6420
  1.8337  1.6991  1.6991  0.5646  0.5646  0.6032  0.4089  0.4089  0.1012  0.2066
  0.2066  0.2644  0.2392  0.1873

 Free energy of the ion-electron system (eV)
  ---------------------------------------------------
  alpha Z        PSCENC =      1174.86337175
  Ewald energy   TEWEN  =    296587.49005197
  -Hartree energ DENC   =   -335577.51550067
  -exchange      EXHF   =         0.00000000
  -V(xc)+E(xc)   XCENC  =       110.51818348
  PAW double counting   =     44473.34455171   -43105.32364677
  entropy T*S    EENTRO =         0.00067494
  eigenvalues    EBANDS =     -1397.99092647
  atomic energy  EATOM  =     37580.47669015
  Solvation  Ediel_sol  =         0.00000000
  ---------------------------------------------------
  free energy    TOTEN  =      -154.13654991 eV

  energy without entropy =     -154.13722485  energy(sigma->0) =     -154.13677489


--------------------------------------------------------------------------------------------------------




--------------------------------------- Iteration      1(  20)  ---------------------------------------


    POTLOK:  cpu time    9.7845: real time   16.3258
    SETDIJ:  cpu time    1.1284: real time    1.8860
     EDDAV:  cpu time   28.2419: real time   47.0231
       DOS:  cpu time    0.0037: real time    0.0061
    CHARGE:  cpu time    0.8647: real time    1.4413
    MIXING:  cpu time    0.0156: real time    0.0239
    --------------------------------------------
      LOOP:  cpu time   40.0389: real time   66.7061

 eigenvalue-minimisations  :  3308
 total energy-change (2. order) : 0.9073611E-02  (-0.2190794E-02)
 number of electron     517.9999609 magnetization 
 augmentation part      159.9790794 magnetization 

 Broyden mixing:
  rms(total) = 0.15152E+00    rms(broyden)= 0.15151E+00
  rms(prec ) = 0.18076E+00
  weight for this iteration     100.00

 eigenvalues of (default mixing * dielectric matrix)
  average eigenvalue GAMMA=   0.6639
  2.0304  1.5571  1.5571  0.8167  0.8167  0.6050  0.6050  0.3935  0.3935  0.1012
  0.2065  0.2065  0.2679  0.2265  0.1747

 Free energy of the ion-electron system (eV)
  ---------------------------------------------------
  alpha Z        PSCENC =      1174.86337175
  Ewald energy   TEWEN  =    296587.49005197
  -Hartree energ DENC   =   -335581.67529550
  -exchange      EXHF   =         0.00000000
  -V(xc)+E(xc)   XCENC  =       110.54917837
  PAW double counting   =     44488.51167164   -43120.44848488
  entropy T*S    EENTRO =         0.00123795
  eigenvalues    EBANDS =     -1393.89589774
  atomic energy  EATOM  =     37580.47669015
  Solvation  Ediel_sol  =         0.00000000
  ---------------------------------------------------
  free energy    TOTEN  =      -154.12747629 eV

  energy without entropy =     -154.12871424  energy(sigma->0) =     -154.12788894


--------------------------------------------------------------------------------------------------------




--------------------------------------- Iteration      1(  21)  ---------------------------------------


    POTLOK:  cpu time    9.7653: real time   16.2865
    SETDIJ:  cpu time    1.1317: real time    1.8857
     EDDAV:  cpu time   28.6334: real time   47.6154
       DOS:  cpu time    0.0037: real time    0.0061
    CHARGE:  cpu time    0.8736: real time    1.4550
[...]
  0.000  -0.011   0.000  -0.000   0.000   0.000  -0.011   0.000
 -0.000  -0.000  -0.015   0.000  -0.001  -0.000  -0.000  -0.015
 -0.000  -0.000   0.000  -0.013   0.000  -0.000  -0.000   0.000
  0.000  -0.010   0.000  -0.000   0.000   0.000  -0.010   0.000
 -0.000  -0.000  -0.016   0.000  -0.002  -0.000  -0.000  -0.016
 -0.000  -0.000   0.000  -0.014   0.000  -0.000  -0.000   0.000
 total augmentation occupancy for first ion, spin component:           1
  2.317   0.000   0.000  -0.000  -0.000  -1.085  -0.000  -0.000   0.000   0.000  -0.000   0.000   0.000  -0.000   0.000  -0.000
  0.000   3.524   0.000   0.000  -0.000  -0.000  -1.624  -0.000  -0.000   0.000   0.000  -0.000  -0.257  -0.000   0.000  -0.004
  0.000   0.000   3.132  -0.000  -0.315  -0.000  -0.000  -1.596   0.000  -0.023   0.310  -0.026   0.000  -0.209   0.000   0.000
 -0.000   0.000  -0.000   3.699  -0.000   0.000  -0.000   0.000  -1.886   0.000  -0.000   0.000   0.000   0.000  -0.343  -0.000
 -0.000  -0.000  -0.315  -0.000   2.762   0.000   0.000  -0.040   0.000  -1.348   0.274  -0.064  -0.000  -0.003   0.000   0.000
 -1.085  -0.000  -0.000   0.000   0.000   1.484   0.000   0.000  -0.000  -0.000  -0.000   0.000  -0.000   0.000  -0.000   0.000
 -0.000  -1.624  -0.000  -0.000   0.000   0.000   1.600   0.000  -0.000  -0.000  -0.000   0.000   0.263   0.000  -0.000  -0.014
 -0.000  -0.000  -1.596   0.000  -0.040   0.000   0.000   1.814  -0.000   0.260  -0.231  -0.017  -0.000   0.259  -0.000   0.000
  0.000  -0.000   0.000  -1.886   0.000  -0.000  -0.000  -0.000   1.920  -0.000   0.000   0.000  -0.000  -0.000   0.399   0.000
  0.000   0.000  -0.023   0.000  -1.348  -0.000  -0.000   0.260  -0.000   1.652  -0.256   0.035   0.000   0.045  -0.000  -0.000
 -0.000   0.000   0.310  -0.000   0.274  -0.000  -0.000  -0.231   0.000  -0.256   1.973  -0.362  -0.000   0.242   0.000  -0.000
  0.000  -0.000  -0.026   0.000  -0.064   0.000   0.000  -0.017   0.000   0.035  -0.362   0.085   0.000  -0.068   0.000  -0.000
  0.000  -0.257   0.000   0.000  -0.000  -0.000   0.263  -0.000  -0.000   0.000  -0.000   0.000   0.195  -0.000  -0.000  -0.009
 -0.000  -0.000  -0.209   0.000  -0.003   0.000   0.000   0.259  -0.000   0.045   0.242  -0.068  -0.000   0.107  -0.000   0.000
  0.000   0.000   0.000  -0.343   0.000  -0.000  -0.000  -0.000   0.399  -0.000   0.000   0.000  -0.000  -0.000   0.140   0.000
 -0.000  -0.004   0.000  -0.000   0.000   0.000  -0.014   0.000   0.000  -0.000  -0.000  -0.000  -0.009   0.000   0.000   0.001
 -0.000  -0.000  -0.011  -0.000   0.002   0.000   0.000  -0.014  -0.000  -0.004  -0.024   0.006   0.000  -0.007  -0.000   0.000
 -0.000  -0.000   0.000  -0.005  -0.000   0.000   0.000  -0.000  -0.020  -0.000  -0.000  -0.000  -0.000  -0.000  -0.007  -0.000


------------------------ aborting loop because EDIFF is reached ----------------------------------------


    CHARGE:  cpu time    0.8554: real time    1.4167
    FORLOC:  cpu time    0.1027: real time    0.1810
    FORNL :  cpu time    4.9748: real time    8.2853
    STRESS:  cpu time   15.3245: real time   25.5248
    FORCOR:  cpu time    9.8678: real time   16.4362
    FORHAR:  cpu time    0.1464: real time    0.2461
    MIXING:  cpu time    0.0290: real time    0.0468
    OFIELD:  cpu time    0.0000: real time    0.0000

  FORCE on cell =-STRESS in cart. coord.  units (eV):
  Direction    XX          YY          ZZ          XY          YZ          ZX
  --------------------------------------------------------------------------------------
  Alpha Z  1174.86337  1174.86337  1174.86337
  Ewald  323048.04411324286.53844************    30.15234    -5.78050   -20.92666
  Hartree332248.39199333002.72542************     5.52633    -2.49839   -17.45840
  E(xc)   -2319.98759 -2315.98833 -2322.89571     0.26265    -0.10063     0.02998
  Local  ************************671017.25194   -27.41960     8.03884    38.98344
  n-local   142.57662   165.70286   144.80675     0.05203    -0.24826    -0.08131
  augment  2709.82265  2681.34534  2743.03882    -0.11881    -0.02168    -0.00842
  Kinetic  7539.72389  7466.53724  7624.76547    -5.77454     3.15648    -0.98418
  Fock        0.00000     0.00000     0.00000     0.00000     0.00000     0.00000
  -------------------------------------------------------------------------------------
  Total     -14.04425   -36.38944     1.04551     2.68040     2.54586    -0.44553
  in kB     -10.46170   -27.10686     0.77881     1.99666     1.89644    -0.33188
  external pressure =      -12.26 kB  Pullay stress =        0.00 kB


 VOLUME and BASIS-vectors are now :
 -----------------------------------------------------------------------------
  energy-cutoff  :      400.00
  volume of cell :     2150.83
      direct lattice vectors                 reciprocal lattice vectors
     8.040000000  0.000000000  0.000000000     0.124378109  0.000000000  0.000000000
     0.000000000  8.527707781  0.000000000     0.000000000  0.117264806  0.000000000
     0.000000000  0.000000000 31.370277041     0.000000000  0.000000000  0.031877309

  length of vectors
     8.040000000  8.527707781 31.370277041     0.124378109  0.117264806  0.031877309


 FORCES acting on ions
    electron-ion (+dipol)            ewald-force                    non-local-force                 convergence-correction
 -----------------------------------------------------------------------------------------------
   0.807E-02 -.290E-01 0.352E+04   -.653E-03 0.312E-02 -.351E+04   -.379E-03 0.877E-03 -.255E+01   -.691E-02 0.257E-01 0.753E-01
   -.787E-02 0.242E-02 0.351E+04   0.120E-02 0.324E-02 -.351E+04   -.330E-03 0.941E-04 -.249E+01   0.692E-02 -.517E-02 0.489E-01
   0.665E-02 0.368E-01 0.352E+04   -.560E-03 0.680E-02 -.351E+04   0.972E-03 0.229E-02 -.253E+01   -.718E-02 -.451E-01 0.639E-01
   -.785E-02 0.115E-01 0.351E+04   0.111E-02 0.624E-02 -.351E+04   -.460E-03 -.249E-03 -.249E+01   0.720E-02 -.169E-01 0.332E-01
   0.756E-02 -.713E-02 0.352E+04   -.587E-03 -.104E-01 -.351E+04   0.638E-03 -.340E-02 -.253E+01   -.764E-02 0.194E-01 0.623E-01
   -.878E-02 -.135E-01 0.351E+04   0.114E-02 -.995E-02 -.351E+04   0.217E-03 0.235E-03 -.249E+01   0.764E-02 0.221E-01 0.471E-01
   -.627E+01 0.107E-01 0.271E+04   0.624E+01 -.658E-02 -.271E+04   0.608E-01 -.400E-03 0.112E+00   -.825E-02 -.398E-02 0.717E-01
   0.627E+01 0.995E-02 0.271E+04   -.625E+01 -.634E-02 -.271E+04   -.617E-01 -.683E-03 0.112E+00   0.821E-02 -.334E-02 0.723E-01
   -.623E+01 0.791E-02 0.271E+04   0.625E+01 0.219E-01 -.271E+04   0.587E-01 0.155E-02 0.111E+00   -.418E-01 -.302E-01 0.580E-01
   0.624E+01 0.794E-02 0.271E+04   -.625E+01 0.213E-01 -.271E+04   -.587E-01 0.138E-02 0.110E+00   0.418E-01 -.298E-01 0.579E-01
   -.627E+01 -.191E-01 0.271E+04   0.624E+01 -.148E-01 -.271E+04   0.561E-01 -.121E-02 0.107E+00   -.389E-02 0.342E-01 0.837E-01
   0.627E+01 -.185E-01 0.271E+04   -.625E+01 -.144E-01 -.271E+04   -.564E-01 -.942E-03 0.110E+00   0.381E-02 0.331E-01 0.841E-01
   0.153E-01 -.293E-01 0.174E+04   -.821E-02 0.302E-01 -.174E+04   -.246E-03 -.530E-03 0.410E-01   -.704E-02 -.436E-03 0.367E-01
   -.167E-01 0.776E-02 0.173E+04   0.103E-01 0.285E-01 -.173E+04   -.290E-03 0.134E-03 -.559E+00   0.693E-02 -.366E-01 0.184E-01
   0.138E-01 -.412E-01 0.174E+04   -.615E-02 0.726E-01 -.174E+04   -.542E-04 0.144E-03 0.417E-01   -.759E-02 -.318E-01 0.307E-01
   -.162E-01 -.642E-01 0.173E+04   0.820E-02 0.649E-01 -.173E+04   0.193E-03 0.119E-03 -.567E+00   0.750E-02 -.740E-03 0.134E-01
   0.149E-01 0.706E-01 0.174E+04   -.674E-02 -.103E+00 -.174E+04   0.216E-03 0.416E-03 0.425E-01   -.845E-02 0.323E-01 0.713E-01
   -.166E-01 0.565E-01 0.173E+04   0.879E-02 -.935E-01 -.173E+04   -.173E-03 -.209E-03 -.564E+00   0.836E-02 0.373E-01 0.448E-01
   -.551E+01 -.240E+00 0.764E+03   0.537E+01 0.276E+00 -.764E+03   0.201E+00 0.164E-02 -.174E+00   -.574E-01 -.365E-01 -.146E+00
   0.551E+01 -.234E+00 0.764E+03   -.537E+01 0.269E+00 -.764E+03   -.201E+00 0.124E-02 -.175E+00   0.573E-01 -.359E-01 -.154E+00
   -.551E+01 0.493E-01 0.764E+03   0.534E+01 -.822E-01 -.764E+03   0.198E+00 -.118E-02 -.172E+00   -.315E-01 0.342E-01 -.122E+00
   0.551E+01 0.459E-01 0.764E+03   -.535E+01 -.805E-01 -.764E+03   -.199E+00 -.356E-03 -.173E+00   0.314E-01 0.350E-01 -.131E+00
   -.555E+01 0.192E+00 0.764E+03   0.538E+01 -.194E+00 -.764E+03   0.201E+00 -.760E-03 -.178E+00   -.280E-01 0.227E-02 -.122E+00
   0.555E+01 0.187E+00 0.764E+03   -.538E+01 -.188E+00 -.764E+03   -.201E+00 -.919E-03 -.176E+00   0.279E-01 0.917E-03 -.131E+00
   -.657E-01 -.469E+00 -.159E+03   0.672E-01 0.452E+00 0.160E+03   0.337E-04 0.558E-03 -.404E-01   -.178E-02 0.169E-01 -.373E+00
   -.837E-01 -.136E+00 -.158E+03   0.861E-01 0.188E+00 0.159E+03   0.396E-05 -.826E-04 -.373E-01   -.261E-02 -.520E-01 -.382E+00
   -.664E-01 0.605E+00 -.159E+03   0.674E-01 -.640E+00 0.159E+03   0.107E-02 -.528E-03 -.391E-01   -.151E-02 0.352E-01 -.389E+00
   0.660E-01 0.791E+00 -.214E+03   -.676E-01 -.830E+00 0.214E+03   -.541E-04 0.123E-02 -.906E-01   0.183E-02 0.349E-01 -.385E+00
   0.669E-01 -.583E+00 -.214E+03   -.687E-01 0.584E+00 0.215E+03   0.414E-04 -.205E-02 -.917E-01   0.209E-02 0.262E-02 -.397E+00
   0.860E-01 -.209E+00 -.213E+03   -.892E-01 0.247E+00 0.214E+03   -.258E-04 0.176E-03 -.907E-01   0.296E-02 -.375E-01 -.402E+00
   0.193E+02 0.159E+01 -.116E+04   -.197E+02 -.158E+01 0.116E+04   0.497E+00 0.201E-03 0.300E-01   -.334E-01 -.393E-02 -.552E+00
   -.193E+02 0.148E+01 -.116E+04   0.197E+02 -.147E+01 0.116E+04   -.498E+00 0.982E-03 0.281E-01   0.339E-01 -.500E-02 -.558E+00
   0.199E+02 0.579E+00 -.116E+04   -.204E+02 -.613E+00 0.116E+04   0.500E+00 0.835E-03 0.184E-01   -.324E-01 0.324E-01 -.539E+00
   -.199E+02 0.589E+00 -.116E+04   0.203E+02 -.618E+00 0.116E+04   -.500E+00 -.101E-02 0.167E-01   0.328E-01 0.325E-01 -.545E+00
   0.195E+02 -.216E+01 -.116E+04   -.199E+02 0.219E+01 0.116E+04   0.496E+00 -.215E-02 0.226E-01   -.375E-01 -.285E-01 -.526E+00
   -.194E+02 -.206E+01 -.116E+04   0.199E+02 0.209E+01 0.116E+04   -.495E+00 -.575E-03 0.236E-01   0.381E-01 -.275E-01 -.533E+00
   -.468E+00 -.271E+01 -.196E+04   0.479E+00 0.272E+01 0.195E+04   -.698E-03 -.358E-02 0.164E+01   -.884E-02 -.321E-02 -.477E+00
   -.791E+00 -.119E+01 -.195E+04   0.798E+00 0.122E+01 0.195E+04   0.249E-02 -.311E-02 0.161E+01   -.978E-02 -.168E-01 -.495E+00
   -.460E+00 0.390E+01 -.195E+04   0.470E+00 -.393E+01 0.195E+04   0.243E-03 0.781E-02 0.164E+01   -.772E-02 0.199E-01 -.519E+00
   0.644E+00 0.869E+01 -.230E+04   -.649E+00 -.870E+01 0.231E+04   -.196E-02 -.626E-02 -.207E+01   0.862E-02 0.197E-01 -.452E+00
   0.665E+00 -.596E+01 -.231E+04   -.674E+00 0.595E+01 0.231E+04   -.207E-02 0.460E-02 -.207E+01   0.105E-01 -.270E-02 -.427E+00
   0.132E+01 -.276E+01 -.229E+04   -.133E+01 0.278E+01 0.229E+04   0.579E-03 0.243E-02 -.209E+01   0.113E-01 -.169E-01 -.444E+00
   0.168E+03 -.188E+02 -.304E+04   -.168E+03 0.188E+02 0.304E+04   -.339E+00 0.670E-02 0.450E+00   -.459E-01 -.808E-02 -.206E+00
   -.169E+03 -.162E+02 -.305E+04   0.169E+03 0.162E+02 0.305E+04   0.364E+00 -.445E-02 0.523E+00   0.460E-01 -.748E-02 -.205E+00
   0.177E+03 0.438E+01 -.306E+04   -.177E+03 -.437E+01 0.306E+04   -.353E+00 -.336E-02 0.481E+00   -.530E-01 -.380E-02 -.211E+00
   -.177E+03 0.441E+01 -.307E+04   0.177E+03 -.441E+01 0.306E+04   0.352E+00 -.200E-02 0.477E+00   0.531E-01 -.109E-02 -.209E+00
   0.164E+03 0.145E+02 -.303E+04   -.164E+03 -.146E+02 0.303E+04   -.400E+00 0.156E-01 0.593E+00   -.559E-01 0.118E-01 -.229E+00
   -.165E+03 0.119E+02 -.304E+04   0.164E+03 -.119E+02 0.304E+04   0.378E+00 0.134E-01 0.531E+00   0.561E-01 0.855E-02 -.227E+00
   -.589E+01 -.603E+01 -.353E+04   0.588E+01 0.602E+01 0.353E+04   0.271E-01 -.431E-02 0.325E+01   -.909E-02 0.129E-01 0.240E-01
   -.232E+01 -.111E+02 -.355E+04   0.231E+01 0.111E+02 0.355E+04   0.123E-01 0.581E-02 0.325E+01   -.877E-02 -.117E-01 0.416E-01
   -.231E+01 0.171E+02 -.354E+04   0.233E+01 -.171E+02 0.354E+04   -.162E-01 -.496E-02 0.324E+01   -.651E-02 -.106E-02 0.350E-01
   0.432E+02 0.366E+02 -.320E+03   -.554E+02 -.449E+02 0.320E+03   0.621E+01 0.544E+01 -.455E+00   -.914E-03 -.188E-02 0.222E-01
   -.199E+02 -.262E+02 -.298E+03   0.248E+02 0.305E+02 0.289E+03   -.392E+01 -.337E+01 0.507E+01   -.737E-03 0.143E-02 0.165E-01
   -.941E+01 -.413E+02 -.341E+03   0.114E+02 0.525E+02 0.354E+03   -.233E+01 -.532E+01 -.626E+01   0.455E-03 0.293E-02 0.252E-01
   -.315E+02 0.371E+02 -.329E+03   0.368E+02 -.423E+02 0.331E+03   -.365E+01 0.359E+01 -.264E+01   0.117E-02 -.238E-02 0.244E-01
   0.269E+02 -.426E+01 -.125E+04   -.292E+02 0.440E+01 0.125E+04   0.602E+01 -.246E+01 0.307E+01   -.826E-03 0.130E-02 0.820E-01
 -----------------------------------------------------------------------------------------------
   -.233E+01 0.210E+01 0.162E+02   0.153E-12 -.711E-14 -.116E-10   0.236E+01 -.210E+01 -.704E+01   -.189E-01 0.130E-02 -.924E+01
 
 
 POSITION                                       TOTAL-FORCE (eV/Angst)
 -----------------------------------------------------------------------------------
      0.00000      0.00000      0.00000         0.000074      0.000657      0.624113
      4.02000      0.00000      0.00000        -0.000141      0.000583      0.777759
      0.00000      2.84257      0.00000        -0.000173      0.000837      0.619248
      4.02000      2.84257      0.00000        -0.000052      0.000520      0.774212
      0.00000      5.68514      0.00000        -0.000084     -0.001527      0.617977
      4.02000      5.68514      0.00000         0.000159     -0.001122      0.775911
      2.01000      4.26385      1.42128         0.029919     -0.000273     -0.693960
      6.03000      4.26385      1.42128        -0.030286     -0.000408     -0.694131
      2.01000      1.42128      1.42128         0.029152      0.001102     -0.694363
      6.03000      1.42128      1.42128        -0.029515      0.000902     -0.695050
      2.01000      7.10642      1.42128         0.029275     -0.000926     -0.695646
      6.03000      7.10642      1.42128        -0.029310     -0.000709     -0.694582
      8.03999      8.52769      2.82825        -0.000205     -0.000028     -0.002648
      4.01999      8.52769      2.85718         0.000176     -0.000134      0.002058
      8.03999      2.84253      2.82812        -0.000061     -0.000256      0.001153
      4.01999      2.84254      2.85707        -0.000361      0.000033      0.000858
      8.03999      5.68518      2.82816        -0.000110      0.000396      0.000963
      4.01999      5.68517      2.85710         0.000316      0.000053      0.001338
      1.98341      1.42123      4.28867        -0.000014      0.000401     -0.005025
      6.05656      1.42123      4.28867        -0.000315      0.000210     -0.002279
      1.98341      4.26387      4.28859         0.000530      0.000150     -0.005246
      6.05656      4.26386      4.28859        -0.000229      0.000080     -0.004818
      1.98341      7.10645      4.28870        -0.000232     -0.000472     -0.000699
      6.05656      7.10644      4.28870        -0.000269     -0.000290     -0.002174
      4.01998      2.84255      5.65839        -0.000346      0.000252      0.000688
      4.01998      8.52770      5.65852        -0.000194      0.000009      0.001912
      4.01998      5.68514      5.65843         0.000495     -0.000417     -0.000155
      8.03998      5.68519      5.71143         0.000204     -0.003012      0.002839
      8.03998      2.84252      5.71134         0.000306      0.001882      0.002943
      8.03998      8.52767      5.71160        -0.000328      0.001044     -0.001942
      1.93233      7.10641      7.14275         0.012728      0.001993      0.002103
      6.10764      7.10641      7.14275        -0.012996      0.001293      0.001991
      1.93231      4.26384      7.14253         0.016793     -0.000562      0.001446
      6.10766      4.26385      7.14254        -0.017062      0.001936      0.000128
      1.93232      1.42128      7.14268         0.012617     -0.002189     -0.000031
      6.10764      1.42128      7.14267        -0.014473     -0.002534      0.003418
      4.01999      2.84254      8.38406         0.001233      0.003687     -0.021947
      4.01998      8.52769      8.38419        -0.000455      0.001719     -0.026878
      4.01998      5.68516      8.38409         0.001697     -0.004459     -0.019242
      8.03998      5.68517      8.75599         0.000741      0.001265     -0.001401
      8.03998      2.84253      8.75595        -0.000926     -0.001822      0.000570
      8.03998      8.52768      8.75609        -0.001800      0.001300     -0.011921
      1.98007      1.42127      9.99379         0.001987      0.013232      0.002865
      6.05989      1.42127      9.99379         0.005080      0.005296      0.011143
      1.98014      4.26384      9.99362        -0.014063     -0.002595      0.020763
      6.05984      4.26385      9.99363         0.014812     -0.001362      0.020675
      1.98004      7.10642      9.99386         0.009988     -0.010123     -0.007561
      6.05992      7.10642      9.99386        -0.002026     -0.005022      0.002385
      4.01999      8.52770     11.13486         0.007254     -0.001035      0.011374
      4.01998      2.84257     11.13482        -0.002217     -0.003718      0.005274
      4.01998      5.68513     11.13482         0.000302      0.005210      0.008657
      7.37686      7.53315     13.33904        -6.042170     -2.879320     -0.724640
      0.59099      0.03973     12.57272         0.979923      0.949439     -4.047056
      0.28392      0.19436     14.00797        -0.371916      5.857451      6.346900
      0.77475      7.45247     13.76597         1.651670     -1.606700     -0.243296
      0.08279      8.12721     13.31225         3.764901     -2.321918     -1.346975
 -----------------------------------------------------------------------------------
    total drift:                                0.002966      0.000142     -0.046992


--------------------------------------------------------------------------------------------------------



  FREE ENERGIE OF THE ION-ELECTRON SYSTEM (eV)
  ---------------------------------------------------
  free  energy   TOTEN  =      -154.10992096 eV

  energy  without entropy=     -154.11186665  energy(sigma->0) =     -154.11056953
 


--------------------------------------------------------------------------------------------------------


    POTLOK:  cpu time   10.8827: real time   18.1252


--------------------------------------------------------------------------------------------------------


 stress matrix after NEB project (eV)
    -14.04425      2.68040     -0.44553
      2.68040    -36.38944      2.54586
     -0.44553      2.54586      1.04551
  FORCES: max atom, RMS     8.644720    1.716773
  FORCE total and by dimension   12.847150    6.346900
  Stress total and by dimension   39.373266   36.389438
     LOOP+:  cpu time 1208.3574: real time 2013.5671
    4ORBIT:  cpu time    0.0000: real time    0.0000

 total amount of memory used by VASP MPI-rank0   341988. kBytes
=======================================================================

   base      :      30000. kBytes
   nonlr-proj:       5691. kBytes
   fftplans  :      20197. kBytes
   grid      :      37288. kBytes
   one-center:        217. kBytes
   wavefun   :     248595. kBytes
 
  
  
 General timing and accounting informations for this job:
 ========================================================
  
                  Total CPU time used (sec):     1214.297
                            User time (sec):     1185.656
                          System time (sec):       28.641
                         Elapsed time (sec):     2026.008
  
                   Maximum memory used (kb):      822732.
                   Average memory used (kb):           0.
  
                          Minor page faults:       198910
                          Major page faults:           11
                 Voluntary context switches:          414
