Pt110                                   
           1
     8.040000    0.000000    0.000000
     0.000000    8.527708    0.000000
     0.000000    0.000000   31.370277
   Pt   H    C 
  51   4   1
Direct configuration=     1
   0.00000000  0.00000000  0.00000000
   0.50000000  0.00000000  0.00000000
   0.00000000  0.33333342  0.00000000
   0.50000000  0.33333342  0.00000000
   0.00000000  0.66666684  0.00000000
   0.50000000  0.66666684  0.00000000
   0.25000000  0.49999954  0.04530658
   0.75000000  0.49999954  0.04530658
   0.25000000  0.16666612  0.04530658
   0.75000000  0.16666612  0.04530658
   0.25000000  0.83333296  0.04530658
   0.75000000  0.83333296  0.04530658
   0.99999876  0.99999791  0.09015700
   0.49999876  0.99999791  0.09107921
   0.99999876  0.33332873  0.09015285
   0.49999876  0.33332990  0.09107570
   0.99999876  0.66667153  0.09015413
   0.49999876  0.66667036  0.09107666
   0.24669279  0.16666026  0.13671126
   0.75330348  0.16666026  0.13671126
   0.24669279  0.50000189  0.13670871
   0.75330348  0.50000072  0.13670871
   0.24669279  0.83333648  0.13671221
   0.75330348  0.83333531  0.13671221
   0.49999751  0.33333107  0.18037424
   0.49999751  0.99999909  0.18037839
   0.49999751  0.66666684  0.18037552
   0.99999751  0.66667270  0.18206502
   0.99999751  0.33332756  0.18206215
   0.99999751  0.99999557  0.18207044
   0.24033955  0.83333179  0.22769165
   0.75965672  0.83333179  0.22769165
   0.24033706  0.49999837  0.22768463
   0.75965920  0.49999954  0.22768495
   0.24033831  0.16666612  0.22768941
   0.75965672  0.16666612  0.22768910
   0.49999876  0.33332990  0.26726127
   0.49999751  0.99999791  0.26726541
   0.49999751  0.66666919  0.26726222
   0.99999751  0.66667036  0.27911739
   0.99999751  0.33332873  0.27911612
   0.99999751  0.99999674  0.27912058
   0.24627736  0.16666495  0.31857513
   0.75371766  0.16666495  0.31857513
   0.24628607  0.49999837  0.31856971
   0.75371144  0.49999954  0.31857003
   0.24627363  0.83333296  0.31857736
   0.75372139  0.83333296  0.31857736
   0.49999876  0.99999909  0.35494937
   0.49999751  0.33333342  0.35494809
   0.49999751  0.66666567  0.35494809
   0.91751990  0.88337337  0.42521269
   0.07350622  0.00465893  0.40078447
   0.03531343  0.02279159  0.44653638
   0.09636194  0.87391245  0.43882207
   0.01029726  0.95303571  0.42435870
